----- GAMESS execution script 'rungms' -----
This job is running on host dftfe.crc.nd.edu
under operating system Linux at Thu Feb 26 00:12:07 EST 2015
Available scratch disk space (Kbyte units) at beginning of the job is
Filesystem     1K-blocks     Used Available Use% Mounted on
/dev/sda2      147771864 22809748 117455684  17% /
GAMESS temporary binary files will be written to /tmp
GAMESS supplementary output files will be written to /tmp
Copying input file gamess.inp to your run's scratch directory...

 Distributed Data Interface kickoff program.
 Initiating 1 compute processes on 1 nodes to run the following command:
 /opt/crc/gamess/2012R1/gamess/gamess.00.x gamess 

          ******************************************************
          *         GAMESS VERSION =  1 MAY 2012 (R1)          *
          *             FROM IOWA STATE UNIVERSITY             *
          * M.W.SCHMIDT, K.K.BALDRIDGE, J.A.BOATZ, S.T.ELBERT, *
          *   M.S.GORDON, J.H.JENSEN, S.KOSEKI, N.MATSUNAGA,   *
          *          K.A.NGUYEN, S.J.SU, T.L.WINDUS,           *
          *       TOGETHER WITH M.DUPUIS, J.A.MONTGOMERY       *
          *         J.COMPUT.CHEM.  14, 1347-1363(1993)        *
          **************** 64 BIT LINUX VERSION ****************

  SINCE 1993, STUDENTS AND POSTDOCS WORKING AT IOWA STATE UNIVERSITY
  AND ALSO IN THEIR VARIOUS JOBS AFTER LEAVING ISU HAVE MADE IMPORTANT
  CONTRIBUTIONS TO THE CODE:
     IVANA ADAMOVIC, CHRISTINE AIKENS, YURI ALEXEEV, POOJA ARORA,
     ANDREY ASADCHEV, ROB BELL, PRADIPTA BANDYOPADHYAY, JONATHAN BENTZ,
     BRETT BODE, GALINA CHABAN, WEI CHEN, CHEOL HO CHOI, PAUL DAY,
     ALBERT DEFUSCO, TIM DUDLEY, DMITRI FEDOROV, GRAHAM FLETCHER,
     MARK FREITAG, KURT GLAESEMANN, DAN KEMP, GRANT MERRILL,
     NORIYUKI MINEZAWA, JONATHAN MULLIN, TAKESHI NAGATA,
     SEAN NEDD, HEATHER NETZLOFF, BOSILJKA NJEGIC, RYAN OLSON, MIKE PAK,
     JIM SHOEMAKER, LYUDMILA SLIPCHENKO, SAROM SOK, JIE SONG,
     TETSUYA TAKETSUGU, SIMON WEBB, SOOHAENG YOO, FEDERICO ZAHARIEV

  ADDITIONAL CODE HAS BEEN PROVIDED BY COLLABORATORS IN OTHER GROUPS:
     IOWA STATE UNIVERSITY:
          JOE IVANIC, LAIMUTIS BYTAUTAS, KLAUS RUEDENBERG
     UNIVERSITY OF TOKYO: KIMIHIKO HIRAO, TAKAHITO NAKAJIMA,
          TAKAO TSUNEDA, MUNEAKI KAMIYA, SUSUMU YANAGISAWA,
          KIYOSHI YAGI, MAHITO CHIBA, SEIKEN TOKURA, NAOAKI KAWAKAMI
     UNIVERSITY OF AARHUS: FRANK JENSEN
     UNIVERSITY OF IOWA: VISVALDAS KAIRYS, HUI LI
     NATIONAL INST. OF STANDARDS AND TECHNOLOGY: WALT STEVENS, DAVID GARMER
     UNIVERSITY OF PISA: BENEDETTA MENNUCCI, JACOPO TOMASI
     UNIVERSITY OF MEMPHIS: HENRY KURTZ, PRAKASHAN KORAMBATH
     UNIVERSITY OF ALBERTA: TOBY ZENG, MARIUSZ KLOBUKOWSKI
     UNIVERSITY OF NEW ENGLAND: MARK SPACKMAN
     MIE UNIVERSITY: HIROAKI UMEDA
     MICHIGAN STATE UNIVERSITY:
          KAROL KOWALSKI, MARTA WLOCH, JEFFREY GOUR, JESSE LUTZ, PIOTR PIECUCH
     UNIVERSITY OF SILESIA: MONIKA MUSIAL, STANISLAW KUCHARSKI
     FACULTES UNIVERSITAIRES NOTRE-DAME DE LA PAIX:
          OLIVIER QUINET, BENOIT CHAMPAGNE
     UNIVERSITY OF CALIFORNIA - SANTA BARBARA: BERNARD KIRTMAN
     INSTITUTE FOR MOLECULAR SCIENCE:
          KAZUYA ISHIMURA, MICHIO KATOUDA, AND SHIGERU NAGASE
     UNIVERSITY OF NOTRE DAME: DAN CHIPMAN
     KYUSHU UNIVERSITY:
          HARUYUKI NAKANO,
          FENG LONG GU, JACEK KORCHOWIEC, MARCIN MAKOWSKI, AND YURIKO AOKI,
          HIROTOSHI MORI AND EISAKU MIYOSHI
     PENNSYLVANIA STATE UNIVERSITY:
          TZVETELIN IORDANOV, CHET SWALINA, JONATHAN SKONE,
          SHARON HAMMES-SCHIFFER
     WASEDA UNIVERSITY:
          MASATO KOBAYASHI, TOMOKO AKAMA, TSUGUKI TOUMA,
          TAKESHI YOSHIKAWA, YASUHIRO IKABATA, HIROMI NAKAI
     UNIVERSITY OF NEBRASKA:
          PEIFENG SU, DEJUN SI, NANDUN THELLAMUREGE, YALI WANG, HUI LI
     UNIVERSITY OF ZURICH:
          ROBERTO PEVERATI, KIM BALDRIDGE
     N. COPERNICUS UNIVERSITY AND JACKSON STATE UNIVERSITY:
          MARIA BARYSZ

 EXECUTION OF GAMESS BEGUN Thu Feb 26 00:12:07 2015

            ECHO OF THE FIRST FEW INPUT CARDS -
 INPUT CARD> $BASIS GBASIS=PC1 $END                                                         
 INPUT CARD> $CONTRL COORD=ZMT ISPHER=1 RUNTYP=ENERGY DFTTYP=PBE $END                       
 INPUT CARD>                                                                                
 INPUT CARD> $DATA                                                                          
 INPUT CARD>Title                                                                           
 INPUT CARD>Cnv 2                                                                           
 INPUT CARD>                                                                                
 INPUT CARD>S                                                                               
 INPUT CARD>O 1 1.10                                                                        
 INPUT CARD>O 1 1.10 2 160.0                                                                
 INPUT CARD> $END                                                                           
    1000000 WORDS OF MEMORY AVAILABLE

     BASIS OPTIONS
     -------------
     GBASIS=PC1          IGAUSS=       0      POLAR=NONE    
     NDFUNC=       0     NFFUNC=       0     DIFFSP=       F
     NPFUNC=       0      DIFFS=       F     BASNAM=        


     RUN TITLE
     ---------
 Title                                                                           

 THE POINT GROUP OF THE MOLECULE IS CNV     
 THE ORDER OF THE PRINCIPAL AXIS IS     2

 YOUR FULLY SUBSTITUTED Z-MATRIX IS
 S   
 O      1   1.1000000
 O      1   1.1000000  2  160.0000

 THE MOMENTS OF INERTIA ARE (AMU-ANGSTROM**2)
 IXX=     0.583   IYY=    37.541   IZZ=    38.124

 ATOM      ATOMIC                      COORDINATES (BOHR)
           CHARGE         X                   Y                   Z
 S          16.0     0.0000000000        0.0000000000       -0.1805311959
 O           8.0    -2.0471184842        0.0000000000        0.1804310256
 O           8.0     2.0471184842        0.0000000000        0.1804310256

          INTERNUCLEAR DISTANCES (ANGS.)
          ------------------------------

                1 S          2 O          3 O     

   1 S       0.0000000    1.1000000 *  1.1000000 *
   2 O       1.1000000 *  0.0000000    2.1665771 *
   3 O       1.1000000 *  2.1665771 *  0.0000000  

  * ... LESS THAN  3.000


     ATOMIC BASIS SET
     ----------------
 THE CONTRACTED PRIMITIVE FUNCTIONS HAVE BEEN UNNORMALIZED
 THE CONTRACTED BASIS FUNCTIONS ARE NOW NORMALIZED TO UNITY

  SHELL TYPE  PRIMITIVE        EXPONENT          CONTRACTION COEFFICIENT(S)

 S         

      1   S       1         55510.0000000    0.000587229760
      1   S       2          8326.7000000    0.004532413947
      1   S       3          1895.6000000    0.023265261648
      1   S       4           536.7700000    0.089696133027
      1   S       5           174.6700000    0.254098332277
      1   S       6            62.5780000    0.438665087637
      1   S       7            23.5730000    0.314547135094
      1   S       8             5.8908000    0.032727897102

      2   S       9          8326.7000000   -0.000019755715
      2   S      10          1895.6000000   -0.000043822381
      2   S      11           536.7700000   -0.001730264906
      2   S      12           174.6700000   -0.009381263460
      2   S      13            62.5780000   -0.064050766303
      2   S      14            23.5730000   -0.082478179196
      2   S      15             5.8908000    0.478342956889
      2   S      16             2.1852000    0.626896670208

      3   S      17          1895.6000000    0.000016227260
      3   S      18           536.7700000    0.000191135619
      3   S      19           174.6700000    0.001952069674
      3   S      20            62.5780000    0.010578701087
      3   S      21            23.5730000    0.022164934551
      3   S      22             5.8908000   -0.184968323118
      3   S      23             2.1852000   -0.480920750976
      3   S      24             0.4528200    1.243822243872

      4   S      25             0.1620200    1.000000000000

      5   P      26           395.4500000    0.004642761329
      5   P      27            92.8340000    0.036023396489
      5   P      28            29.2660000    0.149058869978
      5   P      29            10.5950000    0.360033266263
      5   P      30             4.0272000    0.455756476221
      5   P      31             1.5484000    0.206167664178

      6   P      32            92.8340000    0.000169901442
      6   P      33            29.2660000   -0.002541839934
      6   P      34            10.5950000   -0.007867614595
      6   P      35             4.0272000   -0.037231009184
      6   P      36             1.5484000    0.161417246830
      6   P      37             0.4613400    0.902230419976

      7   P      38             0.1313100    1.000000000000

      8   D      39             0.5500000    1.000000000000

 O         

     15   S      40          2306.7000000    0.005424388755
     15   S      41           347.1500000    0.040474749465
     15   S      42            78.8900000    0.180219634554
     15   S      43            21.8760000    0.462370311787
     15   S      44             6.6646000    0.454888396263

     16   S      45           347.1500000   -0.000655003786
     16   S      46            78.8900000   -0.005362052952
     16   S      47            21.8760000   -0.074902158894
     16   S      48             6.6646000   -0.181442579655
     16   S      49             1.0669000    1.102006874042

     17   S      50             0.3070000    1.000000000000

     18   P      51            17.0220000    0.068979967443
     18   P      52             3.6838000    0.351985516325
     18   P      53             0.9923400    0.724036547822

     19   P      54             0.2448700    1.000000000000

     20   D      55             1.0000000    1.000000000000

 TOTAL NUMBER OF BASIS SET SHELLS             =   20
 NUMBER OF CARTESIAN GAUSSIAN BASIS FUNCTIONS =   49
 NOTE: THIS RUN WILL RESTRICT THE MO VARIATION SPACE TO SPHERICAL HARMONICS.
 THE NUMBER OF ORBITALS KEPT IN THE VARIATIONAL SPACE WILL BE PRINTED LATER.
 NUMBER OF ELECTRONS                          =   32
 CHARGE OF MOLECULE                           =    0
 SPIN MULTIPLICITY                            =    1
 NUMBER OF OCCUPIED ORBITALS (ALPHA)          =   16
 NUMBER OF OCCUPIED ORBITALS (BETA )          =   16
 TOTAL NUMBER OF ATOMS                        =    3
 THE NUCLEAR REPULSION ENERGY IS      138.7857063332

     LEBEDEV GRID-BASED DFT OPTIONS
     ------------------------------
     DFTTYP=PBE     
     NRAD  =      96     NLEB  =     302
     NRAD0 =      24     NLEB0 =     110
     SWOFF =    5.00E-03 (PURE SCF -> DFT)
     SWITCH=    3.00E-04 (COARSE -> TIGHT GRID)
     THRESH=    0.00E+00 GTHRE=    1.00E+00

 GRIMME'S EMPIRICAL DISPERSION CORRECTION= F

     $CONTRL OPTIONS
     ---------------
 SCFTYP=RHF          RUNTYP=ENERGY       EXETYP=RUN     
 MPLEVL=       0     CITYP =NONE         CCTYP =NONE         VBTYP =NONE    
 DFTTYP=PBE          TDDFT =NONE    
 MULT  =       1     ICHARG=       0     NZVAR =       0     COORD =ZMT     
 PP    =NONE         RELWFN=NONE         LOCAL =NONE         NUMGRD=       F
 ISPHER=       1     NOSYM =       0     MAXIT =      30     UNITS =ANGS    
 PLTORB=       F     MOLPLT=       F     AIMPAC=       F     FRIEND=        
 NPRINT=       7     IREST =       0     GEOM  =INPUT   
 NORMF =       0     NORMP =       0     ITOL  =      20     ICUT  =       9
 INTTYP=BEST         GRDTYP=BEST         QMTTOL= 1.0E-06

     $SYSTEM OPTIONS
     ---------------
  REPLICATED MEMORY=     1000000 WORDS (ON EVERY NODE).
 DISTRIBUTED MEMDDI=           0 MILLION WORDS IN AGGREGATE,
 MEMDDI DISTRIBUTED OVER   1 PROCESSORS IS           0 WORDS/PROCESSOR.
 TOTAL MEMORY REQUESTED ON EACH PROCESSOR=     1000000 WORDS.
 TIMLIM=      525600.00 MINUTES, OR     365.0 DAYS.
 PARALL= F  BALTYP=  DLB     KDIAG=    0  COREFL= F
 MXSEQ2=     300 MXSEQ3=     150

          ----------------
          PROPERTIES INPUT
          ----------------

     MOMENTS            FIELD           POTENTIAL          DENSITY
 IEMOM =       1   IEFLD =       0   IEPOT =       0   IEDEN =       0
 WHERE =COMASS     WHERE =NUCLEI     WHERE =NUCLEI     WHERE =NUCLEI  
 OUTPUT=BOTH       OUTPUT=BOTH       OUTPUT=BOTH       OUTPUT=BOTH    
 IEMINT=       0   IEFINT=       0                     IEDINT=       0
                                                       MORB  =       0
          EXTRAPOLATION IN EFFECT
          DIIS IN EFFECT
 ORBITAL PRINTING OPTION: NPREO=     1    49     2     1

     -------------------------------
     INTEGRAL TRANSFORMATION OPTIONS
     -------------------------------
     NWORD  =            0
     CUTOFF = 1.0E-09     MPTRAN =       0
     DIRTRF =       F     AOINTS =DUP     

          ----------------------
          INTEGRAL INPUT OPTIONS
          ----------------------
 NOPK  =       1 NORDER=       0 SCHWRZ=       F

   --- ENCODED Z MATRIX ---
 COORD  TYPE   I   J   K   L   M   N
    1      1    3   1
    2      1    2   1
    3      2    2   1   3

 THE DETERMINANT OF THE G MATRIX IS 10**(    -4)

 THE DETERMINANT OF THE G MATRIX IS 10**(    -4)
 * * * WARNING * * *
 YOUR B MATRIX HAS A SMALL DETERMINANT.
 THIS SUGGESTS YOU MAY HAVE BADLY CHOSEN COORDINATES.

     ------------------------------------------
     THE POINT GROUP IS CNV, NAXIS= 2, ORDER= 4
     ------------------------------------------

 -- VARIATIONAL SPACE WILL BE RESTRICTED TO PURE SPHERICAL HARMONICS ONLY --
 AFTER EXCLUDING CONTAMINANT COMBINATIONS FROM THE CARTESIAN GAUSSIAN BASIS
 SET, THE NUMBER OF SPHERICAL HARMONICS KEPT IN THE VARIATION SPACE IS   46

     DIMENSIONS OF THE SYMMETRY SUBSPACES ARE
 A1  =   19     A2  =    5     B1  =   14     B2  =    8

 ..... DONE SETTING UP THE RUN .....
 STEP CPU TIME =     0.00 TOTAL CPU TIME =        0.0 (    0.0 MIN)
 TOTAL WALL CLOCK TIME=        0.0 SECONDS, CPU UTILIZATION IS   0.00%

          ********************
          1 ELECTRON INTEGRALS
          ********************
 ...... END OF ONE-ELECTRON INTEGRALS ......
 STEP CPU TIME =     0.00 TOTAL CPU TIME =        0.0 (    0.0 MIN)
 TOTAL WALL CLOCK TIME=        0.0 SECONDS, CPU UTILIZATION IS   0.00%

          -------------
          GUESS OPTIONS
          -------------
          GUESS =HUCKEL            NORB  =       0          NORDER=       0
          MIX   =       F          PRTMO =       F          PUNMO =       F
          TOLZ  = 1.0E-08          TOLE  = 1.0E-05
          SYMDEN=       F          PURIFY=       F

 INITIAL GUESS ORBITALS GENERATED BY HUCKEL   ROUTINE.
 HUCKEL GUESS REQUIRES     21583 WORDS.

 STATISTICS FOR GENERATION OF SYMMETRY ORBITAL -Q- MATRIX
 NUMBER OF CARTESIAN ATOMIC ORBITALS=         49
 NUMBER OF SPHERICAL CONTAMINANTS DROPPED=     3
 NUMBER OF LINEARLY DEPENDENT MOS DROPPED=     0
 TOTAL NUMBER OF MOS IN VARIATION SPACE=      46

 SYMMETRIES FOR INITIAL GUESS ORBITALS FOLLOW.   BOTH SET(S).
    16 ORBITALS ARE OCCUPIED (    7 CORE ORBITALS).
     8=?A1      9=?B1     10=B2      11=A1      12=A1      13=B1      14=A2  
    15=B1      16=A1      17=B2      18=?A1     19=?B1     20=A1      21=A1  
    22=A1      23=A1      24=A1      25=A1      26=A1  
 ...... END OF INITIAL ORBITAL SELECTION ......
 STEP CPU TIME =     0.01 TOTAL CPU TIME =        0.0 (    0.0 MIN)
 TOTAL WALL CLOCK TIME=        0.0 SECONDS, CPU UTILIZATION IS  50.00%

                    ----------------------
                    AO INTEGRAL TECHNOLOGY
                    ----------------------
     S,P,L SHELL ROTATED AXIS INTEGRALS, REPROGRAMMED BY
        KAZUYA ISHIMURA (IMS) AND JOSE SIERRA (SYNSTAR).
     S,P,D,L SHELL ROTATED AXIS INTEGRALS PROGRAMMED BY
        KAZUYA ISHIMURA (INSTITUTE FOR MOLECULAR SCIENCE).
     S,P,D,F,G SHELL TO TOTAL QUARTET ANGULAR MOMENTUM SUM 5,
        ERIC PROGRAM BY GRAHAM FLETCHER (ELORET AND NASA ADVANCED
        SUPERCOMPUTING DIVISION, AMES RESEARCH CENTER).
     S,P,D,F,G,L SHELL GENERAL RYS QUADRATURE PROGRAMMED BY
        MICHEL DUPUIS (PACIFIC NORTHWEST NATIONAL LABORATORY).

          --------------------
          2 ELECTRON INTEGRALS
          --------------------

 THE -PK- OPTION IS OFF, THE INTEGRALS ARE NOT IN SUPERMATRIX FORM.
 STORING   15000 INTEGRALS/RECORD ON DISK, USING 12 BYTES/INTEGRAL.
 TWO ELECTRON INTEGRAL EVALUATION REQUIRES   90606 WORDS OF MEMORY.
 II,JST,KST,LST =  1  1  1  1 NREC =         1 INTLOC =    1
 II,JST,KST,LST =  2  1  1  1 NREC =         1 INTLOC =    2
 II,JST,KST,LST =  3  1  1  1 NREC =         1 INTLOC =    7
 II,JST,KST,LST =  4  1  1  1 NREC =         1 INTLOC =   22
 II,JST,KST,LST =  5  1  1  1 NREC =         1 INTLOC =   56
 II,JST,KST,LST =  6  1  1  1 NREC =         1 INTLOC =  125
 II,JST,KST,LST =  7  1  1  1 NREC =         1 INTLOC =  329
 II,JST,KST,LST =  8  1  1  1 NREC =         1 INTLOC =  776
 II,JST,KST,LST =  9  1  1  1 NREC =         1 INTLOC = 2864
 II,JST,KST,LST = 10  1  1  1 NREC =         1 INTLOC = 2864
 II,JST,KST,LST = 11  1  1  1 NREC =         1 INTLOC = 2864
 II,JST,KST,LST = 12  1  1  1 NREC =         1 INTLOC = 2864
 II,JST,KST,LST = 13  1  1  1 NREC =         1 INTLOC = 2864
 II,JST,KST,LST = 14  1  1  1 NREC =         1 INTLOC = 2864
 II,JST,KST,LST = 15  1  1  1 NREC =         1 INTLOC = 2864
 II,JST,KST,LST = 16  1  1  1 NREC =         1 INTLOC = 5235
 II,JST,KST,LST = 17  1  1  1 NREC =         1 INTLOC = 8598
 II,JST,KST,LST = 18  1  1  1 NREC =         1 INTLOC =13100
 II,JST,KST,LST = 19  1  1  1 NREC =         3 INTLOC = 1513
 II,JST,KST,LST = 20  1  1  1 NREC =         5 INTLOC = 3021
 TOTAL NUMBER OF NONZERO TWO-ELECTRON INTEGRALS =              182469
         13 INTEGRAL RECORDS WERE STORED ON DISK FILE  8.
  ...... END OF TWO-ELECTRON INTEGRALS .....
 STEP CPU TIME =     0.18 TOTAL CPU TIME =        0.2 (    0.0 MIN)
 TOTAL WALL CLOCK TIME=        0.2 SECONDS, CPU UTILIZATION IS 100.00%

          --------------------------
               R-PBE SCF CALCULATION
          --------------------------

     NUCLEAR ENERGY =       138.7857063332
     MAXIT =   30     NPUNCH=    2
     EXTRAP=T  DAMP=F  SHIFT=F  RSTRCT=F  DIIS=T  DEM=F  SOSCF=F
         DENSITY MATRIX CONVERGENCE THRESHOLD=  1.00E-05
     COARSE -> FINE DFT GRID SWITCH THRESHOLD=  3.00E-04 (SWITCH IN $DFT)
                   HF -> DFT SWITCH THRESHOLD=  5.00E-03 (SWOFF IN $DFT)
     MEMORY REQUIRED FOR RHF ITERS=    183108 WORDS.

 DFT CODE IS SWITCHING FROM THE FINE GRID NRAD= 96,  NLEB=  302
                      TO THE COARSE GRID NRAD0= 24, NLEB0=  110

     EXCHANGE FUNCTIONAL   =PBE       
     CORRELATION FUNCTIONAL=PBE       
     DFT THRESHOLD         =.460E-07
     GRID CHANGE THRESHOLD =.300E-03
 FOR AN EULER-MACLAURIN QUADRATURE USING  96 RADIAL POINTS:
 SMALLEST GAUSSIAN PRIMITIVE EXPONENT=        0.1313100000 OF TYPE -P-
 ON ATOM NUMBER   1 HAS RADIAL NORMALIZATION=  1.000000
  LARGEST GAUSSIAN PRIMITIVE EXPONENT=    55510.0000000000 OF TYPE -S-
 ON ATOM NUMBER   1 HAS RADIAL NORMALIZATION=  0.999999
 DFT IS SWITCHED OFF, PERFORMING PURE SCF UNTIL SWOFF THRESHOLD IS REACHED.

 ITER EX DEM     TOTAL ENERGY        E CHANGE  DENSITY CHANGE    DIIS ERROR
   1  0  0     -544.8474036588  -544.8474036588   0.735298303   1.239192410
          * * *   INITIATING DIIS PROCEDURE   * * *
   2  1  0     -546.1714576925    -1.3240540337   1.496692742   0.170662596
   3  2  0     -546.3224647508    -0.1510070583   0.383456222   0.074648911
   4  3  0     -546.3555741674    -0.0331094166   0.385140617   0.044610146
   5  4  0     -546.3693303012    -0.0137561338   0.254456060   0.019939512
   6  5  0     -546.3726960707    -0.0033657695   0.047503117   0.005279433
   7  6  0     -546.3728793212    -0.0001832505   0.012313782   0.001033681
   8  7  0     -546.3728827710    -0.0000034499   0.000404071   0.000175394
 CONVERGED TO SWOFF, SO DFT CALCULATION IS NOW SWITCHED ON.
          * * *   INITIATING DIIS PROCEDURE   * * *
   9  8  0     -547.4496141363    -1.0767313652   0.242013584   0.094129584
  10  9  0     -547.4647829327    -0.0151687964   0.145026068   0.035649917
  11 10  0     -547.4648942972    -0.0001113646   0.058592372   0.034292507
  12 11  0     -547.4682252762    -0.0033309790   0.012876595   0.006390871
  13 12  0     -547.4682902241    -0.0000649479   0.004464668   0.000529694
  14 13  0     -547.4682908777    -0.0000006535   0.002174198   0.000178034
  15 14  0     -547.4682910008    -0.0000001231   0.000135159   0.000014556
 DFT CODE IS SWITCHING BACK TO THE FINE GRID
          * * *   INITIATING DIIS PROCEDURE   * * *
  16 15  0     -547.4327427517     0.0355482491   0.031850688   0.012311985
  17 16  0     -547.4329810139    -0.0002382622   0.010789030   0.002900397
  18 17  0     -547.4329915363    -0.0000105224   0.005174748   0.001570525
  19 18  0     -547.4330000916    -0.0000085553   0.001747550   0.000227499
  20 19  0     -547.4330002161    -0.0000001245   0.000598182   0.000069403
  21 20  0     -547.4330002272    -0.0000000112   0.000037637   0.000016036
  22 21  0     -547.4330002278    -0.0000000006   0.000027463   0.000002955
  23 22  0     -547.4330002279    -0.0000000001   0.000002136   0.000000216
  24 23  0     -547.4330002279     0.0000000000   0.000000044   0.000000005

          -----------------
          DENSITY CONVERGED
          -----------------
     TIME TO FORM FOCK OPERATORS=       5.0 SECONDS (       0.2 SEC/ITER)
     TIME TO SOLVE SCF EQUATIONS=       0.0 SECONDS (       0.0 SEC/ITER)

 FINAL R-PBE ENERGY IS     -547.4330002279 AFTER  24 ITERATIONS
 DFT EXCHANGE + CORRELATION ENERGY =       -43.3270828795
 TOTAL ELECTRON NUMBER             =        32.0000009763

          ------------
          EIGENVECTORS
          ------------

                      1          2          3          4          5
                  -88.1309   -18.7625   -18.7625    -7.8072    -5.8383
                     A1         A1         B1         A1         B1  
    1  S  1  S    1.002991  -0.000111   0.000000  -0.273575   0.000000
    2  S  1  S   -0.010054   0.000487   0.000000   1.038381   0.000000
    3  S  1  S    0.002344  -0.001677   0.000000   0.044495   0.000000
    4  S  1  S    0.000071   0.008651   0.000000  -0.004515   0.000000
    5  S  1  X    0.000000   0.000000  -0.000189   0.000000   0.991790
    6  S  1  Y    0.000000   0.000000   0.000000   0.000000   0.000000
    7  S  1  Z    0.000045  -0.000034   0.000000   0.013237   0.000000
    8  S  1  X    0.000000   0.000000   0.003666   0.000000   0.013463
    9  S  1  Y    0.000000   0.000000   0.000000   0.000000   0.000000
   10  S  1  Z    0.000113  -0.000009   0.000000   0.001968   0.000000
   11  S  1  X    0.000000   0.000000  -0.008360   0.000000  -0.000478
   12  S  1  Y    0.000000   0.000000   0.000000   0.000000   0.000000
   13  S  1  Z    0.000025   0.002234   0.000000  -0.000163   0.000000
   14  S  1 XX    0.000590  -0.005297   0.000000   0.005155   0.000000
   15  S  1 YY   -0.000297   0.002556   0.000000  -0.002564   0.000000
   16  S  1 ZZ   -0.000293   0.002741   0.000000  -0.002591   0.000000
   17  S  1 XY    0.000000   0.000000   0.000000   0.000000   0.000000
   18  S  1 XZ    0.000000   0.000000   0.002027   0.000000   0.002501
   19  S  1 YZ    0.000000   0.000000   0.000000   0.000000   0.000000
   20  O  2  S   -0.000015   0.703255   0.703124  -0.002414   0.004756
   21  O  2  S   -0.000162   0.028983   0.027909   0.000592  -0.005550
   22  O  2  S   -0.000742  -0.012464  -0.013871  -0.004849   0.000668
   23  O  2  X   -0.000261   0.003348   0.002447   0.002239  -0.008271
   24  O  2  Y    0.000000   0.000000   0.000000   0.000000   0.000000
   25  O  2  Z    0.000070  -0.000540  -0.000046  -0.000205   0.001928
   26  O  2  X   -0.000433  -0.003336  -0.000638  -0.003489   0.001007
   27  O  2  Y    0.000000   0.000000   0.000000   0.000000   0.000000
   28  O  2  Z    0.000116  -0.000816   0.001153   0.000920   0.000364
   29  O  2 XX   -0.000031   0.000366   0.000925   0.002625  -0.003773
   30  O  2 YY    0.000025  -0.000297  -0.000336  -0.001311   0.002098
   31  O  2 ZZ    0.000006  -0.000069  -0.000589  -0.001314   0.001675
   32  O  2 XY    0.000000   0.000000   0.000000   0.000000   0.000000
   33  O  2 XZ    0.000057  -0.000693   0.000313  -0.000493   0.001758
   34  O  2 YZ    0.000000   0.000000   0.000000   0.000000   0.000000
   35  O  3  S   -0.000015   0.703255  -0.703124  -0.002414  -0.004756
   36  O  3  S   -0.000162   0.028983  -0.027909   0.000592   0.005550
   37  O  3  S   -0.000742  -0.012464   0.013871  -0.004849  -0.000668
   38  O  3  X    0.000261  -0.003348   0.002447  -0.002239  -0.008271
   39  O  3  Y    0.000000   0.000000   0.000000   0.000000   0.000000
   40  O  3  Z    0.000070  -0.000540   0.000046  -0.000205  -0.001928
   41  O  3  X    0.000433   0.003336  -0.000638   0.003489   0.001007
   42  O  3  Y    0.000000   0.000000   0.000000   0.000000   0.000000
   43  O  3  Z    0.000116  -0.000816  -0.001153   0.000920  -0.000364
   44  O  3 XX   -0.000031   0.000366  -0.000925   0.002625   0.003773
   45  O  3 YY    0.000025  -0.000297   0.000336  -0.001311  -0.002098
   46  O  3 ZZ    0.000006  -0.000069   0.000589  -0.001314  -0.001675
   47  O  3 XY    0.000000   0.000000   0.000000   0.000000   0.000000
   48  O  3 XZ   -0.000057   0.000693   0.000313   0.000493   0.001758
   49  O  3 YZ    0.000000   0.000000   0.000000   0.000000   0.000000

                      6          7          8          9         10
                   -5.8136    -5.8111    -1.2297    -1.1246    -0.5604
                     B2         A1         A1         B1         B2  
    1  S  1  S    0.000000   0.004059   0.066415   0.000000   0.000000
    2  S  1  S    0.000000  -0.015058  -0.231457   0.000000   0.000000
    3  S  1  S    0.000000   0.001240   0.307093   0.000000   0.000000
    4  S  1  S    0.000000  -0.000473   0.077203   0.000000   0.000000
    5  S  1  X    0.000000   0.000000   0.000000  -0.249222   0.000000
    6  S  1  Y    0.996167   0.000000   0.000000   0.000000  -0.212130
    7  S  1  Z    0.000000   0.995999  -0.046349   0.000000   0.000000
    8  S  1  X    0.000000   0.000000   0.000000   0.358638   0.000000
    9  S  1  Y    0.010537   0.000000   0.000000   0.000000   0.444239
   10  S  1  Z    0.000000   0.010472   0.065070   0.000000   0.000000
   11  S  1  X    0.000000   0.000000   0.000000  -0.006402   0.000000
   12  S  1  Y   -0.000894   0.000000   0.000000   0.000000   0.110456
   13  S  1  Z    0.000000  -0.000852  -0.008713   0.000000   0.000000
   14  S  1 XX    0.000000  -0.000438   0.099186   0.000000   0.000000
   15  S  1 YY    0.000000  -0.000706  -0.051425   0.000000   0.000000
   16  S  1 ZZ    0.000000   0.001144  -0.047761   0.000000   0.000000
   17  S  1 XY    0.000000   0.000000   0.000000   0.000000   0.000000
   18  S  1 XZ    0.000000   0.000000   0.000000   0.052786   0.000000
   19  S  1 YZ    0.001056   0.000000   0.000000   0.000000   0.039763
   20  O  2  S    0.000000  -0.000771  -0.135132   0.150539   0.000000
   21  O  2  S    0.000000   0.001051   0.234394  -0.282461   0.000000
   22  O  2  S    0.000000   0.000026   0.217975  -0.245416   0.000000
   23  O  2  X    0.000000   0.001614   0.163996  -0.164835   0.000000
   24  O  2  Y    0.001285   0.000000   0.000000   0.000000   0.353178
   25  O  2  Z    0.000000   0.001003  -0.015524   0.025121   0.000000
   26  O  2  X    0.000000  -0.000264   0.040963  -0.010029   0.000000
   27  O  2  Y   -0.000041   0.000000   0.000000   0.000000   0.173474
   28  O  2  Z    0.000000  -0.000024   0.004712   0.005209   0.000000
   29  O  2 XX    0.000000   0.000825   0.030006  -0.023559   0.000000
   30  O  2 YY    0.000000  -0.000177  -0.014253   0.012888   0.000000
   31  O  2 ZZ    0.000000  -0.000648  -0.015753   0.010671   0.000000
   32  O  2 XY    0.001151   0.000000   0.000000   0.000000   0.036116
   33  O  2 XZ    0.000000   0.000944  -0.002876   0.010414   0.000000
   34  O  2 YZ   -0.000287   0.000000   0.000000   0.000000  -0.004735
   35  O  3  S    0.000000  -0.000771  -0.135132  -0.150539   0.000000
   36  O  3  S    0.000000   0.001051   0.234394   0.282461   0.000000
   37  O  3  S    0.000000   0.000026   0.217975   0.245416   0.000000
   38  O  3  X    0.000000  -0.001614  -0.163996  -0.164835   0.000000
   39  O  3  Y    0.001285   0.000000   0.000000   0.000000   0.353178
   40  O  3  Z    0.000000   0.001003  -0.015524  -0.025121   0.000000
   41  O  3  X    0.000000   0.000264  -0.040963  -0.010029   0.000000
   42  O  3  Y   -0.000041   0.000000   0.000000   0.000000   0.173474
   43  O  3  Z    0.000000  -0.000024   0.004712  -0.005209   0.000000
   44  O  3 XX    0.000000   0.000825   0.030006   0.023559   0.000000
   45  O  3 YY    0.000000  -0.000177  -0.014253  -0.012888   0.000000
   46  O  3 ZZ    0.000000  -0.000648  -0.015753  -0.010671   0.000000
   47  O  3 XY   -0.001151   0.000000   0.000000   0.000000  -0.036116
   48  O  3 XZ    0.000000  -0.000944   0.002876   0.010414   0.000000
   49  O  3 YZ   -0.000287   0.000000   0.000000   0.000000  -0.004735

                     11         12         13         14         15
                   -0.5546    -0.5043    -0.4532    -0.4361    -0.4274
                     A1         A1         B1         A2         B1  
    1  S  1  S   -0.007800   0.045577   0.000000   0.000000   0.000000
    2  S  1  S    0.022770  -0.132829   0.000000   0.000000   0.000000
    3  S  1  S   -0.047053   0.273410   0.000000   0.000000   0.000000
    4  S  1  S   -0.048284   0.059872   0.000000   0.000000   0.000000
    5  S  1  X    0.000000   0.000000   0.169647   0.000000   0.025256
    6  S  1  Y    0.000000   0.000000   0.000000   0.000000   0.000000
    7  S  1  Z   -0.205291  -0.013584   0.000000   0.000000   0.000000
    8  S  1  X    0.000000   0.000000  -0.302629   0.000000  -0.039979
    9  S  1  Y    0.000000   0.000000   0.000000   0.000000   0.000000
   10  S  1  Z    0.429587   0.024455   0.000000   0.000000   0.000000
   11  S  1  X    0.000000   0.000000   0.074069   0.000000   0.029194
   12  S  1  Y    0.000000   0.000000   0.000000   0.000000   0.000000
   13  S  1  Z    0.107830  -0.019650   0.000000   0.000000   0.000000
   14  S  1 XX   -0.066228  -0.015139   0.000000   0.000000   0.000000
   15  S  1 YY   -0.001323   0.008637   0.000000   0.000000   0.000000
   16  S  1 ZZ    0.067551   0.006501   0.000000   0.000000   0.000000
   17  S  1 XY    0.000000   0.000000   0.000000  -0.214064   0.000000
   18  S  1 XZ    0.000000   0.000000   0.024635   0.000000  -0.207250
   19  S  1 YZ    0.000000   0.000000   0.000000   0.000000   0.000000
   20  O  2  S    0.006895   0.093207   0.059683   0.000000   0.012204
   21  O  2  S   -0.003357  -0.190716  -0.123630   0.000000  -0.041534
   22  O  2  S   -0.003484  -0.335668  -0.254505   0.000000  -0.059976
   23  O  2  X    0.060984   0.345421   0.388465   0.000000   0.198085
   24  O  2  Y    0.000000   0.000000   0.000000   0.455078   0.000000
   25  O  2  Z    0.349719  -0.054894  -0.194229   0.000000   0.412471
   26  O  2  X    0.034596   0.188051   0.172388   0.000000   0.107518
   27  O  2  Y    0.000000   0.000000   0.000000   0.256751   0.000000
   28  O  2  Z    0.169350  -0.027611  -0.109896   0.000000   0.234046
   29  O  2 XX    0.007463   0.022847   0.025356   0.000000   0.016443
   30  O  2 YY   -0.000116  -0.012091  -0.013950   0.000000  -0.007953
   31  O  2 ZZ   -0.007347  -0.010756  -0.011406   0.000000  -0.008490
   32  O  2 XY    0.000000   0.000000   0.000000   0.023220   0.000000
   33  O  2 XZ    0.032941  -0.006031  -0.015944   0.000000   0.020365
   34  O  2 YZ    0.000000   0.000000   0.000000  -0.000271   0.000000
   35  O  3  S    0.006895   0.093207  -0.059683   0.000000  -0.012204
   36  O  3  S   -0.003357  -0.190716   0.123630   0.000000   0.041534
   37  O  3  S   -0.003484  -0.335668   0.254505   0.000000   0.059976
   38  O  3  X   -0.060984  -0.345421   0.388465   0.000000   0.198085
   39  O  3  Y    0.000000   0.000000   0.000000  -0.455078   0.000000
   40  O  3  Z    0.349719  -0.054894   0.194229   0.000000  -0.412471
   41  O  3  X   -0.034596  -0.188051   0.172388   0.000000   0.107518
   42  O  3  Y    0.000000   0.000000   0.000000  -0.256751   0.000000
   43  O  3  Z    0.169350  -0.027611   0.109896   0.000000  -0.234046
   44  O  3 XX    0.007463   0.022847  -0.025356   0.000000  -0.016443
   45  O  3 YY   -0.000116  -0.012091   0.013950   0.000000   0.007953
   46  O  3 ZZ   -0.007347  -0.010756   0.011406   0.000000   0.008490
   47  O  3 XY    0.000000   0.000000   0.000000   0.023220   0.000000
   48  O  3 XZ   -0.032941   0.006031  -0.015944   0.000000   0.020365
   49  O  3 YZ    0.000000   0.000000   0.000000   0.000271   0.000000

                     16         17         18         19         20
                   -0.1523     0.0129     0.0493     0.2418     0.3459
                     A1         B2         A1         B1         B2  
    1  S  1  S    0.023030   0.000000   0.000302   0.000000   0.000000
    2  S  1  S   -0.119931   0.000000  -0.053279   0.000000   0.000000
    3  S  1  S    0.100813   0.000000  -0.054428   0.000000   0.000000
    4  S  1  S    1.375579   0.000000   0.944216   0.000000   0.000000
    5  S  1  X    0.000000   0.000000   0.000000  -0.011147   0.000000
    6  S  1  Y    0.000000  -0.181711   0.000000   0.000000  -0.304723
    7  S  1  Z    0.094583   0.000000  -0.150703   0.000000   0.000000
    8  S  1  X    0.000000   0.000000   0.000000   0.164795   0.000000
    9  S  1  Y    0.000000   0.503891   0.000000   0.000000   1.140276
   10  S  1  Z   -0.204892   0.000000   0.438577   0.000000   0.000000
   11  S  1  X    0.000000   0.000000   0.000000   2.201583   0.000000
   12  S  1  Y    0.000000   0.943037   0.000000   0.000000  -1.097068
   13  S  1  Z   -0.132279   0.000000   1.027993   0.000000   0.000000
   14  S  1 XX   -0.271476   0.000000  -0.082766   0.000000   0.000000
   15  S  1 YY    0.141100   0.000000   0.094623   0.000000   0.000000
   16  S  1 ZZ    0.130376   0.000000  -0.011856   0.000000   0.000000
   17  S  1 XY    0.000000   0.000000   0.000000   0.000000   0.000000
   18  S  1 XZ    0.000000   0.000000   0.000000  -0.012176   0.000000
   19  S  1 YZ    0.000000  -0.048320   0.000000   0.000000   0.062562
   20  O  2  S    0.065322   0.000000   0.038414  -0.078272   0.000000
   21  O  2  S   -0.093810   0.000000  -0.064779   0.090078   0.000000
   22  O  2  S   -0.443370   0.000000  -0.448065   1.396138   0.000000
   23  O  2  X   -0.232960   0.000000  -0.146569  -0.078368   0.000000
   24  O  2  Y    0.000000  -0.398403   0.000000   0.000000  -0.032280
   25  O  2  Z    0.169528   0.000000  -0.348310  -0.056976   0.000000
   26  O  2  X   -0.211600   0.000000  -0.220806   0.146304   0.000000
   27  O  2  Y    0.000000  -0.480864   0.000000   0.000000  -0.042327
   28  O  2  Z    0.156145   0.000000  -0.430641  -0.148945   0.000000
   29  O  2 XX   -0.041048   0.000000  -0.021321   0.030454   0.000000
   30  O  2 YY    0.020514   0.000000   0.013198  -0.015125   0.000000
   31  O  2 ZZ    0.020534   0.000000   0.008123  -0.015329   0.000000
   32  O  2 XY    0.000000  -0.008155   0.000000   0.000000   0.043198
   33  O  2 XZ    0.010624   0.000000  -0.000784  -0.008756   0.000000
   34  O  2 YZ    0.000000  -0.001717   0.000000   0.000000  -0.005006
   35  O  3  S    0.065322   0.000000   0.038414   0.078272   0.000000
   36  O  3  S   -0.093810   0.000000  -0.064779  -0.090078   0.000000
   37  O  3  S   -0.443370   0.000000  -0.448065  -1.396138   0.000000
   38  O  3  X    0.232960   0.000000   0.146569  -0.078368   0.000000
   39  O  3  Y    0.000000  -0.398403   0.000000   0.000000  -0.032280
   40  O  3  Z    0.169528   0.000000  -0.348310   0.056976   0.000000
   41  O  3  X    0.211600   0.000000   0.220806   0.146304   0.000000
   42  O  3  Y    0.000000  -0.480864   0.000000   0.000000  -0.042327
   43  O  3  Z    0.156145   0.000000  -0.430641   0.148945   0.000000
   44  O  3 XX   -0.041048   0.000000  -0.021321  -0.030454   0.000000
   45  O  3 YY    0.020514   0.000000   0.013198   0.015125   0.000000
   46  O  3 ZZ    0.020534   0.000000   0.008123   0.015329   0.000000
   47  O  3 XY    0.000000   0.008155   0.000000   0.000000  -0.043198
   48  O  3 XZ   -0.010624   0.000000   0.000784  -0.008756   0.000000
   49  O  3 YZ    0.000000  -0.001717   0.000000   0.000000  -0.005006

                     21         22         23         24         25
                    0.3547     0.4346     0.5174     0.5195     0.6116
                     A1         A1         B2         A1         B1  
    1  S  1  S   -0.002503  -0.046818   0.000000   0.004117   0.000000
    2  S  1  S   -0.033938   0.053983   0.000000  -0.022931   0.000000
    3  S  1  S   -0.069275  -0.432331   0.000000   0.016966   0.000000
    4  S  1  S   -0.379343   2.971830   0.000000  -0.232088   0.000000
    5  S  1  X    0.000000   0.000000   0.000000   0.000000  -0.111690
    6  S  1  Y    0.000000   0.000000   0.010986   0.000000   0.000000
    7  S  1  Z   -0.299478  -0.060959   0.000000   0.010292   0.000000
    8  S  1  X    0.000000   0.000000   0.000000   0.000000   0.938674
    9  S  1  Y    0.000000   0.000000  -0.040624   0.000000   0.000000
   10  S  1  Z    1.107618   0.312458   0.000000  -0.046440   0.000000
   11  S  1  X    0.000000   0.000000   0.000000   0.000000  -0.205773
   12  S  1  Y    0.000000   0.000000   0.171688   0.000000   0.000000
   13  S  1  Z   -1.043528  -0.115228   0.000000   0.175907   0.000000
   14  S  1 XX   -0.238895   0.666190   0.000000  -0.078743   0.000000
   15  S  1 YY    0.087698  -0.435737   0.000000  -0.797356   0.000000
   16  S  1 ZZ    0.151197  -0.230453   0.000000   0.876100   0.000000
   17  S  1 XY    0.000000   0.000000   0.000000   0.000000   0.000000
   18  S  1 XZ    0.000000   0.000000   0.000000   0.000000   0.326770
   19  S  1 YZ    0.000000   0.000000   0.973189   0.000000   0.000000
   20  O  2  S    0.001381   0.022644   0.000000  -0.000289  -0.027766
   21  O  2  S   -0.020929  -0.008134   0.000000  -0.020803  -0.076730
   22  O  2  S    0.313095  -1.393031   0.000000   0.118316   0.760074
   23  O  2  X   -0.087178   0.287422   0.000000  -0.068866  -0.289124
   24  O  2  Y    0.000000   0.000000  -0.116438   0.000000   0.000000
   25  O  2  Z   -0.037259  -0.028512   0.000000  -0.113048   0.130867
   26  O  2  X    0.124285  -0.926868   0.000000   0.101139   1.323964
   27  O  2  Y    0.000000   0.000000  -0.058060   0.000000   0.000000
   28  O  2  Z   -0.109188   0.228777   0.000000  -0.087682  -0.082589
   29  O  2 XX    0.017542  -0.045660   0.000000   0.003513   0.008595
   30  O  2 YY   -0.004267   0.021693   0.000000  -0.057496  -0.006035
   31  O  2 ZZ   -0.013275   0.023967   0.000000   0.053983  -0.002560
   32  O  2 XY    0.000000   0.000000   0.006660   0.000000   0.000000
   33  O  2 XZ    0.035301   0.034321   0.000000   0.006174  -0.005065
   34  O  2 YZ    0.000000   0.000000   0.064550   0.000000   0.000000
   35  O  3  S    0.001381   0.022644   0.000000  -0.000289   0.027766
   36  O  3  S   -0.020929  -0.008134   0.000000  -0.020803   0.076730
   37  O  3  S    0.313095  -1.393031   0.000000   0.118316  -0.760074
   38  O  3  X    0.087178  -0.287422   0.000000   0.068866  -0.289124
   39  O  3  Y    0.000000   0.000000  -0.116438   0.000000   0.000000
   40  O  3  Z   -0.037259  -0.028512   0.000000  -0.113048  -0.130867
   41  O  3  X   -0.124285   0.926868   0.000000  -0.101139   1.323964
   42  O  3  Y    0.000000   0.000000  -0.058060   0.000000   0.000000
   43  O  3  Z   -0.109188   0.228777   0.000000  -0.087682   0.082589
   44  O  3 XX    0.017542  -0.045660   0.000000   0.003513  -0.008595
   45  O  3 YY   -0.004267   0.021693   0.000000  -0.057496   0.006035
   46  O  3 ZZ   -0.013275   0.023967   0.000000   0.053983   0.002560
   47  O  3 XY    0.000000   0.000000  -0.006660   0.000000   0.000000
   48  O  3 XZ   -0.035301  -0.034321   0.000000  -0.006174  -0.005065
   49  O  3 YZ    0.000000   0.000000   0.064550   0.000000   0.000000

                     26         27         28         29         30
                    0.6392     0.6469     0.6503     0.8935     0.9051
                     A2         B1         A1         A1         B2  
    1  S  1  S    0.000000   0.000000   0.114610  -0.024898   0.000000
    2  S  1  S    0.000000   0.000000   0.582212  -0.126196   0.000000
    3  S  1  S    0.000000   0.000000   1.985916  -0.436560   0.000000
    4  S  1  S    0.000000   0.000000  -0.283553   0.156028   0.000000
    5  S  1  X    0.000000   0.067535   0.000000   0.000000   0.000000
    6  S  1  Y    0.000000   0.000000   0.000000   0.000000   0.041201
    7  S  1  Z    0.000000   0.000000  -0.025088   0.049649   0.000000
    8  S  1  X    0.000000  -0.321560   0.000000   0.000000   0.000000
    9  S  1  Y    0.000000   0.000000   0.000000   0.000000  -0.057442
   10  S  1  Z    0.000000   0.000000   0.175418  -0.105477   0.000000
   11  S  1  X    0.000000   0.026870   0.000000   0.000000   0.000000
   12  S  1  Y    0.000000   0.000000   0.000000   0.000000   1.223905
   13  S  1  Z    0.000000   0.000000   0.140449   1.201434   0.000000
   14  S  1 XX    0.000000   0.000000  -0.106259  -0.101270   0.000000
   15  S  1 YY    0.000000   0.000000   0.025033  -0.036888   0.000000
   16  S  1 ZZ    0.000000   0.000000   0.081225   0.138159   0.000000
   17  S  1 XY    0.670540   0.000000   0.000000   0.000000   0.000000
   18  S  1 XZ    0.000000   0.670144   0.000000   0.000000   0.000000
   19  S  1 YZ    0.000000   0.000000   0.000000   0.000000   0.104659
   20  O  2  S    0.000000   0.018806   0.054715   0.000954   0.000000
   21  O  2  S    0.000000  -0.039224  -0.095507  -0.012415   0.000000
   22  O  2  S    0.000000  -0.042106  -0.462433   0.056289   0.000000
   23  O  2  X    0.000000  -0.012758   0.135247   0.167138   0.000000
   24  O  2  Y   -0.356843   0.000000   0.000000   0.000000   0.621827
   25  O  2  Z    0.000000  -0.335708   0.040106   0.589387   0.000000
   26  O  2  X    0.000000  -0.041405  -1.047427  -0.024628   0.000000
   27  O  2  Y    0.921753   0.000000   0.000000   0.000000  -1.213937
   28  O  2  Z    0.000000   0.916841   0.008923  -1.192352   0.000000
   29  O  2 XX    0.000000  -0.005635   0.011620  -0.004028   0.000000
   30  O  2 YY    0.000000  -0.003160  -0.005498   0.005209   0.000000
   31  O  2 ZZ    0.000000   0.008795  -0.006122  -0.001181   0.000000
   32  O  2 XY   -0.012208   0.000000   0.000000   0.000000   0.048008
   33  O  2 XZ    0.000000  -0.018711   0.004045   0.038411   0.000000
   34  O  2 YZ    0.005297   0.000000   0.000000   0.000000  -0.004944
   35  O  3  S    0.000000  -0.018806   0.054715   0.000954   0.000000
   36  O  3  S    0.000000   0.039224  -0.095507  -0.012415   0.000000
   37  O  3  S    0.000000   0.042106  -0.462433   0.056289   0.000000
   38  O  3  X    0.000000  -0.012758  -0.135247  -0.167138   0.000000
   39  O  3  Y    0.356843   0.000000   0.000000   0.000000   0.621827
   40  O  3  Z    0.000000   0.335708   0.040106   0.589387   0.000000
   41  O  3  X    0.000000  -0.041405   1.047427   0.024628   0.000000
   42  O  3  Y   -0.921753   0.000000   0.000000   0.000000  -1.213937
   43  O  3  Z    0.000000  -0.916841   0.008923  -1.192352   0.000000
   44  O  3 XX    0.000000   0.005635   0.011620  -0.004028   0.000000
   45  O  3 YY    0.000000   0.003160  -0.005498   0.005209   0.000000
   46  O  3 ZZ    0.000000  -0.008795  -0.006122  -0.001181   0.000000
   47  O  3 XY   -0.012208   0.000000   0.000000   0.000000  -0.048008
   48  O  3 XZ    0.000000  -0.018711  -0.004045  -0.038411   0.000000
   49  O  3 YZ   -0.005297   0.000000   0.000000   0.000000  -0.004944

                     31         32         33         34         35
                    0.9056     0.9239     1.5925     1.5951     1.7740
                     B1         A2         B1         A1         B1  
    1  S  1  S    0.000000   0.000000   0.000000   0.043129   0.000000
    2  S  1  S    0.000000   0.000000   0.000000   0.179663   0.000000
    3  S  1  S    0.000000   0.000000   0.000000   0.712320   0.000000
    4  S  1  S    0.000000   0.000000   0.000000   2.662543   0.000000
    5  S  1  X   -0.159135   0.000000  -0.361733   0.000000  -0.028757
    6  S  1  Y    0.000000   0.000000   0.000000   0.000000   0.000000
    7  S  1  Z    0.000000   0.000000   0.000000  -0.037589   0.000000
    8  S  1  X    0.756094   0.000000   1.575567   0.000000   0.457879
    9  S  1  Y    0.000000   0.000000   0.000000   0.000000   0.000000
   10  S  1  Z    0.000000   0.000000   0.000000   0.243092   0.000000
   11  S  1  X   -0.499737   0.000000   0.158255   0.000000   1.912959
   12  S  1  Y    0.000000   0.000000   0.000000   0.000000   0.000000
   13  S  1  Z    0.000000   0.000000   0.000000   0.445945   0.000000
   14  S  1 XX    0.000000   0.000000   0.000000   0.690348   0.000000
   15  S  1 YY    0.000000   0.000000   0.000000  -0.370993   0.000000
   16  S  1 ZZ    0.000000   0.000000   0.000000  -0.319355   0.000000
   17  S  1 XY    0.000000   0.895923   0.000000   0.000000   0.000000
   18  S  1 XZ   -0.725549   0.000000   0.405982   0.000000   0.096431
   19  S  1 YZ    0.000000   0.000000   0.000000   0.000000   0.000000
   20  O  2  S   -0.018710   0.000000  -0.032645   0.003160  -0.010967
   21  O  2  S    0.027473   0.000000   0.410032   0.910005  -1.318266
   22  O  2  S    0.060012   0.000000   0.600893  -2.653412   2.803586
   23  O  2  X   -0.012238   0.000000   0.672415  -0.395293   0.182463
   24  O  2  Y    0.000000   0.589428   0.000000   0.000000   0.000000
   25  O  2  Z   -0.582482   0.000000   0.023269   0.167610   0.024684
   26  O  2  X    0.409764   0.000000   0.067498  -0.725700   0.213133
   27  O  2  Y    0.000000  -0.097954   0.000000   0.000000   0.000000
   28  O  2  Z    0.154017   0.000000  -0.047159  -0.085966  -0.203811
   29  O  2 XX   -0.002350   0.000000  -0.216859   0.210380  -0.101459
   30  O  2 YY    0.029969   0.000000   0.051451  -0.111192   0.070220
   31  O  2 ZZ   -0.027619   0.000000   0.165408  -0.099188   0.031239
   32  O  2 XY    0.000000  -0.082714   0.000000   0.000000   0.000000
   33  O  2 XZ    0.067277   0.000000  -0.063440  -0.016741   0.134673
   34  O  2 YZ    0.000000   0.039787   0.000000   0.000000   0.000000
   35  O  3  S    0.018710   0.000000   0.032645   0.003160   0.010967
   36  O  3  S   -0.027473   0.000000  -0.410032   0.910005   1.318266
   37  O  3  S   -0.060012   0.000000  -0.600893  -2.653412  -2.803586
   38  O  3  X   -0.012238   0.000000   0.672415   0.395293   0.182463
   39  O  3  Y    0.000000  -0.589428   0.000000   0.000000   0.000000
   40  O  3  Z    0.582482   0.000000  -0.023269   0.167610  -0.024684
   41  O  3  X    0.409764   0.000000   0.067498   0.725700   0.213133
   42  O  3  Y    0.000000   0.097954   0.000000   0.000000   0.000000
   43  O  3  Z   -0.154017   0.000000   0.047159  -0.085966   0.203811
   44  O  3 XX    0.002350   0.000000   0.216859   0.210380   0.101459
   45  O  3 YY   -0.029969   0.000000  -0.051451  -0.111192  -0.070220
   46  O  3 ZZ    0.027619   0.000000  -0.165408  -0.099188  -0.031239
   47  O  3 XY    0.000000  -0.082714   0.000000   0.000000   0.000000
   48  O  3 XZ    0.067277   0.000000  -0.063440   0.016741   0.134673
   49  O  3 YZ    0.000000  -0.039787   0.000000   0.000000   0.000000

                     36         37         38         39         40
                    1.9579     1.9590     2.0993     2.1287     2.2289
                     A2         B1         A1         B2         A1  
    1  S  1  S    0.000000   0.000000   0.014186   0.000000  -0.015448
    2  S  1  S    0.000000   0.000000  -0.093792   0.000000   0.192037
    3  S  1  S    0.000000   0.000000   0.058186   0.000000   0.051721
    4  S  1  S    0.000000   0.000000  -0.039620   0.000000   0.049468
    5  S  1  X    0.000000  -0.013555   0.000000   0.000000   0.000000
    6  S  1  Y    0.000000   0.000000   0.000000  -0.028830   0.000000
    7  S  1  Z    0.000000   0.000000  -0.063353   0.000000   0.079365
    8  S  1  X    0.000000   0.037521   0.000000   0.000000   0.000000
    9  S  1  Y    0.000000   0.000000   0.000000   0.196961   0.000000
   10  S  1  Z    0.000000   0.000000   0.367327   0.000000  -0.431921
   11  S  1  X    0.000000   0.048620   0.000000   0.000000   0.000000
   12  S  1  Y    0.000000   0.000000   0.000000  -0.001789   0.000000
   13  S  1  Z    0.000000   0.000000  -0.022483   0.000000  -0.038705
   14  S  1 XX    0.000000   0.000000   0.434971   0.000000  -0.619109
   15  S  1 YY    0.000000   0.000000  -0.034508   0.000000   0.573918
   16  S  1 ZZ    0.000000   0.000000  -0.400463   0.000000   0.045191
   17  S  1 XY    0.043547   0.000000   0.000000   0.000000   0.000000
   18  S  1 XZ    0.000000  -0.033765   0.000000   0.000000   0.000000
   19  S  1 YZ    0.000000   0.000000   0.000000  -0.300243   0.000000
   20  O  2  S    0.000000  -0.001531  -0.005389   0.000000   0.010775
   21  O  2  S    0.000000  -0.004980  -0.431465   0.000000   0.630520
   22  O  2  S    0.000000   0.045296   0.195527   0.000000  -0.332388
   23  O  2  X    0.000000   0.024916  -0.220375   0.000000   0.313050
   24  O  2  Y   -0.009980   0.000000   0.000000   0.032949   0.000000
   25  O  2  Z    0.000000   0.012879   0.113655   0.000000  -0.130877
   26  O  2  X    0.000000  -0.022393   0.122458   0.000000  -0.226275
   27  O  2  Y    0.029537   0.000000   0.000000  -0.068168   0.000000
   28  O  2  Z    0.000000  -0.035253  -0.121964   0.000000   0.206171
   29  O  2 XX    0.000000  -0.075987  -0.019377   0.000000  -0.021792
   30  O  2 YY    0.000000   0.616948  -0.525699   0.000000  -0.315575
   31  O  2 ZZ    0.000000  -0.540961   0.545076   0.000000   0.337367
   32  O  2 XY    0.227244   0.000000   0.000000  -0.100143   0.000000
   33  O  2 XZ    0.000000  -0.220237  -0.256916   0.000000   0.515361
   34  O  2 YZ    0.670661   0.000000   0.000000   0.721253   0.000000
   35  O  3  S    0.000000   0.001531  -0.005389   0.000000   0.010775
   36  O  3  S    0.000000   0.004980  -0.431465   0.000000   0.630520
   37  O  3  S    0.000000  -0.045296   0.195527   0.000000  -0.332388
   38  O  3  X    0.000000   0.024916   0.220375   0.000000  -0.313050
   39  O  3  Y    0.009980   0.000000   0.000000   0.032949   0.000000
   40  O  3  Z    0.000000  -0.012879   0.113655   0.000000  -0.130877
   41  O  3  X    0.000000  -0.022393  -0.122458   0.000000   0.226275
   42  O  3  Y   -0.029537   0.000000   0.000000  -0.068168   0.000000
   43  O  3  Z    0.000000   0.035253  -0.121964   0.000000   0.206171
   44  O  3 XX    0.000000   0.075987  -0.019377   0.000000  -0.021792
   45  O  3 YY    0.000000  -0.616948  -0.525699   0.000000  -0.315575
   46  O  3 ZZ    0.000000   0.540961   0.545076   0.000000   0.337367
   47  O  3 XY    0.227244   0.000000   0.000000   0.100143   0.000000
   48  O  3 XZ    0.000000  -0.220237   0.256916   0.000000  -0.515361
   49  O  3 YZ   -0.670661   0.000000   0.000000   0.721253   0.000000

                     41         42         43         44         45
                    2.3832     2.6631     2.8379     2.9157     2.9485
                     B2         A1         B1         A2         B1  
    1  S  1  S    0.000000  -0.055768   0.000000   0.000000   0.000000
    2  S  1  S    0.000000  -0.816453   0.000000   0.000000   0.000000
    3  S  1  S    0.000000  -1.757446   0.000000   0.000000   0.000000
    4  S  1  S    0.000000  -1.407616   0.000000   0.000000   0.000000
    5  S  1  X    0.000000   0.000000  -0.056208   0.000000  -0.121098
    6  S  1  Y    0.100748   0.000000   0.000000   0.000000   0.000000
    7  S  1  Z    0.000000   0.054067   0.000000   0.000000   0.000000
    8  S  1  X    0.000000   0.000000   1.923804   0.000000   1.859148
    9  S  1  Y   -0.691162   0.000000   0.000000   0.000000   0.000000
   10  S  1  Z    0.000000  -0.668425   0.000000   0.000000   0.000000
   11  S  1  X    0.000000   0.000000   0.352323   0.000000   0.109486
   12  S  1  Y   -0.170640   0.000000   0.000000   0.000000   0.000000
   13  S  1  Z    0.000000  -0.241730   0.000000   0.000000   0.000000
   14  S  1 XX    0.000000  -0.067528   0.000000   0.000000   0.000000
   15  S  1 YY    0.000000   0.140446   0.000000   0.000000   0.000000
   16  S  1 ZZ    0.000000  -0.072919   0.000000   0.000000   0.000000
   17  S  1 XY    0.000000   0.000000   0.000000   1.278088   0.000000
   18  S  1 XZ    0.000000   0.000000  -0.549181   0.000000   1.237124
   19  S  1 YZ   -0.256237   0.000000   0.000000   0.000000   0.000000
   20  O  2  S    0.000000  -0.036335  -0.040043   0.000000  -0.018496
   21  O  2  S    0.000000  -0.764936  -0.464446   0.000000   0.110600
   22  O  2  S    0.000000   2.060277   1.800490   0.000000   1.244794
   23  O  2  X    0.000000   0.106158   0.245145   0.000000   0.492150
   24  O  2  Y   -0.062306   0.000000   0.000000   0.218528   0.000000
   25  O  2  Z    0.000000  -0.029995  -0.140370   0.000000   0.101094
   26  O  2  X    0.000000   1.068139   0.856138   0.000000   0.734217
   27  O  2  Y    0.369333   0.000000   0.000000   0.439863   0.000000
   28  O  2  Z    0.000000   0.071982  -0.417236   0.000000   0.230024
   29  O  2 XX    0.000000   0.836346   0.540120   0.000000   0.791100
   30  O  2 YY    0.000000  -0.420125  -0.421566   0.000000  -0.218434
   31  O  2 ZZ    0.000000  -0.416221  -0.118554   0.000000  -0.572666
   32  O  2 XY    0.797906   0.000000   0.000000   0.929479   0.000000
   33  O  2 XZ    0.000000   0.183120  -0.745151   0.000000   0.495585
   34  O  2 YZ    0.091432   0.000000   0.000000  -0.276301   0.000000
   35  O  3  S    0.000000  -0.036335   0.040043   0.000000   0.018496
   36  O  3  S    0.000000  -0.764936   0.464446   0.000000  -0.110600
   37  O  3  S    0.000000   2.060277  -1.800490   0.000000  -1.244794
   38  O  3  X    0.000000  -0.106158   0.245145   0.000000   0.492150
   39  O  3  Y   -0.062306   0.000000   0.000000  -0.218528   0.000000
   40  O  3  Z    0.000000  -0.029995   0.140370   0.000000  -0.101094
   41  O  3  X    0.000000  -1.068139   0.856138   0.000000   0.734217
   42  O  3  Y    0.369333   0.000000   0.000000  -0.439863   0.000000
   43  O  3  Z    0.000000   0.071982   0.417236   0.000000  -0.230024
   44  O  3 XX    0.000000   0.836346  -0.540120   0.000000  -0.791100
   45  O  3 YY    0.000000  -0.420125   0.421566   0.000000   0.218434
   46  O  3 ZZ    0.000000  -0.416221   0.118554   0.000000   0.572666
   47  O  3 XY   -0.797906   0.000000   0.000000   0.929479   0.000000
   48  O  3 XZ    0.000000  -0.183120  -0.745151   0.000000   0.495585
   49  O  3 YZ    0.091432   0.000000   0.000000   0.276301   0.000000

                     46
                    2.9521
                     A1  
    1  S  1  S    0.094388
    2  S  1  S    0.525748
    3  S  1  S    1.892474
    4  S  1  S    1.328730
    5  S  1  X    0.000000
    6  S  1  Y    0.000000
    7  S  1  Z    0.012761
    8  S  1  X    0.000000
    9  S  1  Y    0.000000
   10  S  1  Z    0.039432
   11  S  1  X    0.000000
   12  S  1  Y    0.000000
   13  S  1  Z   -0.132153
   14  S  1 XX    1.992396
   15  S  1 YY   -0.933096
   16  S  1 ZZ   -1.059300
   17  S  1 XY    0.000000
   18  S  1 XZ    0.000000
   19  S  1 YZ    0.000000
   20  O  2  S   -0.013558
   21  O  2  S   -0.682145
   22  O  2  S   -1.421799
   23  O  2  X   -0.825375
   24  O  2  Y    0.000000
   25  O  2  Z    0.227381
   26  O  2  X   -0.527099
   27  O  2  Y    0.000000
   28  O  2  Z    0.390747
   29  O  2 XX   -0.388127
   30  O  2 YY    0.268283
   31  O  2 ZZ    0.119844
   32  O  2 XY    0.000000
   33  O  2 XZ    0.614398
   34  O  2 YZ    0.000000
   35  O  3  S   -0.013558
   36  O  3  S   -0.682145
   37  O  3  S   -1.421799
   38  O  3  X    0.825375
   39  O  3  Y    0.000000
   40  O  3  Z    0.227381
   41  O  3  X    0.527099
   42  O  3  Y    0.000000
   43  O  3  Z    0.390747
   44  O  3 XX   -0.388127
   45  O  3 YY    0.268283
   46  O  3 ZZ    0.119844
   47  O  3 XY    0.000000
   48  O  3 XZ   -0.614398
   49  O  3 YZ    0.000000
 ...... END OF RHF CALCULATION ......
 STEP CPU TIME =     5.08 TOTAL CPU TIME =        5.3 (    0.1 MIN)
 TOTAL WALL CLOCK TIME=        5.3 SECONDS, CPU UTILIZATION IS 100.00%

     ---------------------------------------------------------------------
     PROPERTIES FOR THE PBE      DFT FUNCTIONAL (RHF  TYPE) DENSITY MATRIX
     ---------------------------------------------------------------------

          -----------------
          ENERGY COMPONENTS
          -----------------

         WAVEFUNCTION NORMALIZATION =       1.0000000000

                ONE ELECTRON ENERGY =   -1028.9686113198
                TWO ELECTRON ENERGY =     342.7499047587
           NUCLEAR REPULSION ENERGY =     138.7857063332
                                      ------------------
                       TOTAL ENERGY =    -547.4330002279

 ELECTRON-ELECTRON POTENTIAL ENERGY =     342.7499047587
  NUCLEUS-ELECTRON POTENTIAL ENERGY =   -1581.8744825203
   NUCLEUS-NUCLEUS POTENTIAL ENERGY =     138.7857063332
                                      ------------------
             TOTAL POTENTIAL ENERGY =   -1100.3388714284
               TOTAL KINETIC ENERGY =     552.9058712005
                 VIRIAL RATIO (V/T) =       1.9901016226

          ---------------------------------------
          MULLIKEN AND LOWDIN POPULATION ANALYSES
          ---------------------------------------

     ATOMIC MULLIKEN POPULATION IN EACH MOLECULAR ORBITAL

                      1          2          3          4          5

                  2.000000   2.000000   2.000000   2.000000   2.000000

    1             2.000144  -0.000738   0.000883   2.004350   1.992740
    2            -0.000072   1.000369   0.999558  -0.002175   0.003630
    3            -0.000072   1.000369   0.999558  -0.002175   0.003630

                      6          7          8          9         10

                  2.000000   2.000000   2.000000   2.000000   2.000000

    1             1.999555   1.999387   0.721713   0.611265   0.805567
    2             0.000222   0.000307   0.639143   0.694367   0.597216
    3             0.000222   0.000307   0.639143   0.694367   0.597216

                     11         12         13         14         15

                  2.000000   2.000000   2.000000   2.000000   2.000000

    1             0.799551   0.193625   0.200222   0.304815   0.283558
    2             0.600224   0.903188   0.899889   0.847592   0.858221
    3             0.600224   0.903188   0.899889   0.847592   0.858221

                     16

                  2.000000

    1             2.027253
    2            -0.013626
    3            -0.013626

               ----- POPULATIONS IN EACH AO -----
                             MULLIKEN      LOWDIN
              1  S  1  S      2.00029     1.99584
              2  S  1  S      2.01252     1.88830
              3  S  1  S      0.75315     0.45407
              4  S  1  S      1.56662     0.78816
              5  S  1  X      1.99737     1.95863
              6  S  1  Y      1.99596     1.95593
              7  S  1  Z      1.99645     1.96007
              8  S  1  X      0.73234     0.62471
              9  S  1  Y      0.64781     0.57144
             10  S  1  Z      0.72773     0.66301
             11  S  1  X      0.05713     0.25493
             12  S  1  Y      0.15279     0.24586
             13  S  1  Z      0.18955     0.29042
             14  S  1 XX      0.13829     0.48738
             15  S  1 YY      0.36068     0.32580
             16  S  1 ZZ      0.30482     0.34156
             17  S  1 XY      0.30183     0.39090
             18  S  1 XZ      0.00856     0.38705
             19  S  1 YZ      0.00000     0.00862
             20  O  2  S      1.99885     1.97731
             21  O  2  S      0.81513     0.63055
             22  O  2  S      0.76659     0.46984
             23  O  2  X      1.16662     1.13211
             24  O  2  Y      0.95497     0.88440
             25  O  2  Z      1.02444     0.96152
             26  O  2  X      0.31070     0.49707
             27  O  2  Y      0.47360     0.50746
             28  O  2  Z      0.47201     0.51819
             29  O  2 XX      0.00412     0.23141
             30  O  2 YY      0.00989     0.17423
             31  O  2 ZZ      0.01627     0.17360
             32  O  2 XY      0.01469     0.02141
             33  O  2 XZ      0.00020     0.02419
             34  O  2 YZ      0.00000     0.00036
             35  O  3  S      1.99885     1.97731
             36  O  3  S      0.81513     0.63055
             37  O  3  S      0.76659     0.46984
             38  O  3  X      1.16662     1.13211
             39  O  3  Y      0.95497     0.88440
             40  O  3  Z      1.02444     0.96152
             41  O  3  X      0.31070     0.49707
             42  O  3  Y      0.47360     0.50746
             43  O  3  Z      0.47201     0.51819
             44  O  3 XX      0.00412     0.23141
             45  O  3 YY      0.00989     0.17423
             46  O  3 ZZ      0.01627     0.17360
             47  O  3 XY      0.01469     0.02141
             48  O  3 XZ      0.00020     0.02419
             49  O  3 YZ      0.00000     0.00036

          ----- MULLIKEN ATOMIC OVERLAP POPULATIONS -----
          (OFF-DIAGONAL ELEMENTS NEED TO BE MULTIPLIED BY 2)

             1           2           3

    1   16.5193697
    2   -0.2877398   8.1518708
    3   -0.2877398   0.1639240   8.1518708

          TOTAL MULLIKEN AND LOWDIN ATOMIC POPULATIONS
       ATOM         MULL.POP.    CHARGE          LOW.POP.     CHARGE
    1 S            15.943890    0.056110        15.592682    0.407318
    2 O             8.028055   -0.028055         8.203659   -0.203659
    3 O             8.028055   -0.028055         8.203659   -0.203659

          MULLIKEN SPHERICAL HARMONIC POPULATIONS
       ATOM           S       P       D      F      G      H      I    TOTAL
    1 S             6.33    8.50    1.11   0.00   0.00   0.00   0.00   15.94
    2 O             3.58    4.40    0.05   0.00   0.00   0.00   0.00    8.03
    3 O             3.58    4.40    0.05   0.00   0.00   0.00   0.00    8.03

          -------------------------------
          BOND ORDER AND VALENCE ANALYSIS     BOND ORDER THRESHOLD=0.050
          -------------------------------

                   BOND                       BOND                       BOND
  ATOM PAIR DIST  ORDER      ATOM PAIR DIST  ORDER      ATOM PAIR DIST  ORDER
    1   2  1.100  2.019        1   3  1.100  2.019        2   3  2.167  0.084

                       TOTAL       BONDED        FREE
      ATOM            VALENCE     VALENCE     VALENCE
    1 S                 4.038       4.038       0.000
    2 O                 2.103       2.103       0.000
    3 O                 2.103       2.103       0.000

          ---------------------
          ELECTROSTATIC MOMENTS
          ---------------------

 POINT   1           X           Y           Z (BOHR)    CHARGE
                 0.000000    0.000000    0.000000        0.00 (A.U.)
         DX          DY          DZ         /D/  (DEBYE)
     0.000000    0.000000    0.830990    0.830990
 ...... END OF PROPERTY EVALUATION ......
 STEP CPU TIME =     0.00 TOTAL CPU TIME =        5.3 (    0.1 MIN)
 TOTAL WALL CLOCK TIME=        5.3 SECONDS, CPU UTILIZATION IS  99.81%
               580000  WORDS OF DYNAMIC MEMORY USED
 EXECUTION OF GAMESS TERMINATED NORMALLY Thu Feb 26 00:12:13 2015
 DDI: 263624 bytes (0.3 MB / 0 MWords) used by master data server.

 ----------------------------------------
 CPU timing information for all processes
 ========================================
 0: 5.259 + 0.23 = 5.283
 ----------------------------------------
 ddikick.x: exited gracefully.
----- accounting info -----
Files used on the master node dftfe.crc.nd.edu were:
-rw-r--r-- 1 pmehta1 campus   37475 Feb 26 00:12 /tmp/gamess.dat
-rw-r--r-- 1 pmehta1 campus     142 Feb 26 00:12 /tmp/gamess.F05
-rw-r--r-- 1 pmehta1 campus 2340312 Feb 26 00:12 /tmp/gamess.F08
-rw-r--r-- 1 pmehta1 campus 1220440 Feb 26 00:12 /tmp/gamess.F10
Thu Feb 26 00:12:16 EST 2015
0.239u 0.177s 0:08.71 4.5%	0+0k 0+152io 0pf+0w
