----- GAMESS execution script 'rungms' -----
This job is running on host dftfe.crc.nd.edu
under operating system Linux at Thu Feb 26 00:22:39 EST 2015
Available scratch disk space (Kbyte units) at beginning of the job is
Filesystem     1K-blocks     Used Available Use% Mounted on
/dev/sda2      147771864 22818652 117446780  17% /
GAMESS temporary binary files will be written to /tmp
GAMESS supplementary output files will be written to /tmp
Copying input file gamess.inp to your run's scratch directory...

 Distributed Data Interface kickoff program.
 Initiating 1 compute processes on 1 nodes to run the following command:
 /opt/crc/gamess/2012R1/gamess/gamess.00.x gamess 

          ******************************************************
          *         GAMESS VERSION =  1 MAY 2012 (R1)          *
          *             FROM IOWA STATE UNIVERSITY             *
          * M.W.SCHMIDT, K.K.BALDRIDGE, J.A.BOATZ, S.T.ELBERT, *
          *   M.S.GORDON, J.H.JENSEN, S.KOSEKI, N.MATSUNAGA,   *
          *          K.A.NGUYEN, S.J.SU, T.L.WINDUS,           *
          *       TOGETHER WITH M.DUPUIS, J.A.MONTGOMERY       *
          *         J.COMPUT.CHEM.  14, 1347-1363(1993)        *
          **************** 64 BIT LINUX VERSION ****************

  SINCE 1993, STUDENTS AND POSTDOCS WORKING AT IOWA STATE UNIVERSITY
  AND ALSO IN THEIR VARIOUS JOBS AFTER LEAVING ISU HAVE MADE IMPORTANT
  CONTRIBUTIONS TO THE CODE:
     IVANA ADAMOVIC, CHRISTINE AIKENS, YURI ALEXEEV, POOJA ARORA,
     ANDREY ASADCHEV, ROB BELL, PRADIPTA BANDYOPADHYAY, JONATHAN BENTZ,
     BRETT BODE, GALINA CHABAN, WEI CHEN, CHEOL HO CHOI, PAUL DAY,
     ALBERT DEFUSCO, TIM DUDLEY, DMITRI FEDOROV, GRAHAM FLETCHER,
     MARK FREITAG, KURT GLAESEMANN, DAN KEMP, GRANT MERRILL,
     NORIYUKI MINEZAWA, JONATHAN MULLIN, TAKESHI NAGATA,
     SEAN NEDD, HEATHER NETZLOFF, BOSILJKA NJEGIC, RYAN OLSON, MIKE PAK,
     JIM SHOEMAKER, LYUDMILA SLIPCHENKO, SAROM SOK, JIE SONG,
     TETSUYA TAKETSUGU, SIMON WEBB, SOOHAENG YOO, FEDERICO ZAHARIEV

  ADDITIONAL CODE HAS BEEN PROVIDED BY COLLABORATORS IN OTHER GROUPS:
     IOWA STATE UNIVERSITY:
          JOE IVANIC, LAIMUTIS BYTAUTAS, KLAUS RUEDENBERG
     UNIVERSITY OF TOKYO: KIMIHIKO HIRAO, TAKAHITO NAKAJIMA,
          TAKAO TSUNEDA, MUNEAKI KAMIYA, SUSUMU YANAGISAWA,
          KIYOSHI YAGI, MAHITO CHIBA, SEIKEN TOKURA, NAOAKI KAWAKAMI
     UNIVERSITY OF AARHUS: FRANK JENSEN
     UNIVERSITY OF IOWA: VISVALDAS KAIRYS, HUI LI
     NATIONAL INST. OF STANDARDS AND TECHNOLOGY: WALT STEVENS, DAVID GARMER
     UNIVERSITY OF PISA: BENEDETTA MENNUCCI, JACOPO TOMASI
     UNIVERSITY OF MEMPHIS: HENRY KURTZ, PRAKASHAN KORAMBATH
     UNIVERSITY OF ALBERTA: TOBY ZENG, MARIUSZ KLOBUKOWSKI
     UNIVERSITY OF NEW ENGLAND: MARK SPACKMAN
     MIE UNIVERSITY: HIROAKI UMEDA
     MICHIGAN STATE UNIVERSITY:
          KAROL KOWALSKI, MARTA WLOCH, JEFFREY GOUR, JESSE LUTZ, PIOTR PIECUCH
     UNIVERSITY OF SILESIA: MONIKA MUSIAL, STANISLAW KUCHARSKI
     FACULTES UNIVERSITAIRES NOTRE-DAME DE LA PAIX:
          OLIVIER QUINET, BENOIT CHAMPAGNE
     UNIVERSITY OF CALIFORNIA - SANTA BARBARA: BERNARD KIRTMAN
     INSTITUTE FOR MOLECULAR SCIENCE:
          KAZUYA ISHIMURA, MICHIO KATOUDA, AND SHIGERU NAGASE
     UNIVERSITY OF NOTRE DAME: DAN CHIPMAN
     KYUSHU UNIVERSITY:
          HARUYUKI NAKANO,
          FENG LONG GU, JACEK KORCHOWIEC, MARCIN MAKOWSKI, AND YURIKO AOKI,
          HIROTOSHI MORI AND EISAKU MIYOSHI
     PENNSYLVANIA STATE UNIVERSITY:
          TZVETELIN IORDANOV, CHET SWALINA, JONATHAN SKONE,
          SHARON HAMMES-SCHIFFER
     WASEDA UNIVERSITY:
          MASATO KOBAYASHI, TOMOKO AKAMA, TSUGUKI TOUMA,
          TAKESHI YOSHIKAWA, YASUHIRO IKABATA, HIROMI NAKAI
     UNIVERSITY OF NEBRASKA:
          PEIFENG SU, DEJUN SI, NANDUN THELLAMUREGE, YALI WANG, HUI LI
     UNIVERSITY OF ZURICH:
          ROBERTO PEVERATI, KIM BALDRIDGE
     N. COPERNICUS UNIVERSITY AND JACKSON STATE UNIVERSITY:
          MARIA BARYSZ

 EXECUTION OF GAMESS BEGUN Thu Feb 26 00:22:39 2015

            ECHO OF THE FIRST FEW INPUT CARDS -
 INPUT CARD> $BASIS GBASIS=PC1 $END                                                         
 INPUT CARD> $CONTRL COORD=ZMT ISPHER=1 RUNTYP=ENERGY DFTTYP=PBE $END                       
 INPUT CARD>                                                                                
 INPUT CARD> $DATA                                                                          
 INPUT CARD>Title                                                                           
 INPUT CARD>Cnv 2                                                                           
 INPUT CARD>                                                                                
 INPUT CARD>S                                                                               
 INPUT CARD>O 1 2.00                                                                        
 INPUT CARD>O 1 2.00 2 110.0                                                                
 INPUT CARD> $END                                                                           
    1000000 WORDS OF MEMORY AVAILABLE

     BASIS OPTIONS
     -------------
     GBASIS=PC1          IGAUSS=       0      POLAR=NONE    
     NDFUNC=       0     NFFUNC=       0     DIFFSP=       F
     NPFUNC=       0      DIFFS=       F     BASNAM=        


     RUN TITLE
     ---------
 Title                                                                           

 THE POINT GROUP OF THE MOLECULE IS CNV     
 THE ORDER OF THE PRINCIPAL AXIS IS     2

 YOUR FULLY SUBSTITUTED Z-MATRIX IS
 S   
 O      1   2.0000000
 O      1   2.0000000  2  110.0000

 THE MOMENTS OF INERTIA ARE (AMU-ANGSTROM**2)
 IXX=    21.043   IYY=    85.862   IZZ=   106.905

 ATOM      ATOMIC                      COORDINATES (BOHR)
           CHARGE         X                   Y                   Z
 S          16.0     0.0000000000        0.0000000000       -1.0842030904
 O           8.0    -3.0959458120        0.0000000000        1.0836015051
 O           8.0     3.0959458120        0.0000000000        1.0836015051

          INTERNUCLEAR DISTANCES (ANGS.)
          ------------------------------

                1 S          2 O          3 O     

   1 S       0.0000000    2.0000000 *  2.0000000 *
   2 O       2.0000000 *  0.0000000    3.2766082  
   3 O       2.0000000 *  3.2766082    0.0000000  

  * ... LESS THAN  3.000


     ATOMIC BASIS SET
     ----------------
 THE CONTRACTED PRIMITIVE FUNCTIONS HAVE BEEN UNNORMALIZED
 THE CONTRACTED BASIS FUNCTIONS ARE NOW NORMALIZED TO UNITY

  SHELL TYPE  PRIMITIVE        EXPONENT          CONTRACTION COEFFICIENT(S)

 S         

      1   S       1         55510.0000000    0.000587229760
      1   S       2          8326.7000000    0.004532413947
      1   S       3          1895.6000000    0.023265261648
      1   S       4           536.7700000    0.089696133027
      1   S       5           174.6700000    0.254098332277
      1   S       6            62.5780000    0.438665087637
      1   S       7            23.5730000    0.314547135094
      1   S       8             5.8908000    0.032727897102

      2   S       9          8326.7000000   -0.000019755715
      2   S      10          1895.6000000   -0.000043822381
      2   S      11           536.7700000   -0.001730264906
      2   S      12           174.6700000   -0.009381263460
      2   S      13            62.5780000   -0.064050766303
      2   S      14            23.5730000   -0.082478179196
      2   S      15             5.8908000    0.478342956889
      2   S      16             2.1852000    0.626896670208

      3   S      17          1895.6000000    0.000016227260
      3   S      18           536.7700000    0.000191135619
      3   S      19           174.6700000    0.001952069674
      3   S      20            62.5780000    0.010578701087
      3   S      21            23.5730000    0.022164934551
      3   S      22             5.8908000   -0.184968323118
      3   S      23             2.1852000   -0.480920750976
      3   S      24             0.4528200    1.243822243872

      4   S      25             0.1620200    1.000000000000

      5   P      26           395.4500000    0.004642761329
      5   P      27            92.8340000    0.036023396489
      5   P      28            29.2660000    0.149058869978
      5   P      29            10.5950000    0.360033266263
      5   P      30             4.0272000    0.455756476221
      5   P      31             1.5484000    0.206167664178

      6   P      32            92.8340000    0.000169901442
      6   P      33            29.2660000   -0.002541839934
      6   P      34            10.5950000   -0.007867614595
      6   P      35             4.0272000   -0.037231009184
      6   P      36             1.5484000    0.161417246830
      6   P      37             0.4613400    0.902230419976

      7   P      38             0.1313100    1.000000000000

      8   D      39             0.5500000    1.000000000000

 O         

     15   S      40          2306.7000000    0.005424388755
     15   S      41           347.1500000    0.040474749465
     15   S      42            78.8900000    0.180219634554
     15   S      43            21.8760000    0.462370311787
     15   S      44             6.6646000    0.454888396263

     16   S      45           347.1500000   -0.000655003786
     16   S      46            78.8900000   -0.005362052952
     16   S      47            21.8760000   -0.074902158894
     16   S      48             6.6646000   -0.181442579655
     16   S      49             1.0669000    1.102006874042

     17   S      50             0.3070000    1.000000000000

     18   P      51            17.0220000    0.068979967443
     18   P      52             3.6838000    0.351985516325
     18   P      53             0.9923400    0.724036547822

     19   P      54             0.2448700    1.000000000000

     20   D      55             1.0000000    1.000000000000

 TOTAL NUMBER OF BASIS SET SHELLS             =   20
 NUMBER OF CARTESIAN GAUSSIAN BASIS FUNCTIONS =   49
 NOTE: THIS RUN WILL RESTRICT THE MO VARIATION SPACE TO SPHERICAL HARMONICS.
 THE NUMBER OF ORBITALS KEPT IN THE VARIATIONAL SPACE WILL BE PRINTED LATER.
 NUMBER OF ELECTRONS                          =   32
 CHARGE OF MOLECULE                           =    0
 SPIN MULTIPLICITY                            =    1
 NUMBER OF OCCUPIED ORBITALS (ALPHA)          =   16
 NUMBER OF OCCUPIED ORBITALS (BETA )          =   16
 TOTAL NUMBER OF ATOMS                        =    3
 THE NUCLEAR REPULSION ENERGY IS       78.0707861239

     LEBEDEV GRID-BASED DFT OPTIONS
     ------------------------------
     DFTTYP=PBE     
     NRAD  =      96     NLEB  =     302
     NRAD0 =      24     NLEB0 =     110
     SWOFF =    5.00E-03 (PURE SCF -> DFT)
     SWITCH=    3.00E-04 (COARSE -> TIGHT GRID)
     THRESH=    0.00E+00 GTHRE=    1.00E+00

 GRIMME'S EMPIRICAL DISPERSION CORRECTION= F

     $CONTRL OPTIONS
     ---------------
 SCFTYP=RHF          RUNTYP=ENERGY       EXETYP=RUN     
 MPLEVL=       0     CITYP =NONE         CCTYP =NONE         VBTYP =NONE    
 DFTTYP=PBE          TDDFT =NONE    
 MULT  =       1     ICHARG=       0     NZVAR =       0     COORD =ZMT     
 PP    =NONE         RELWFN=NONE         LOCAL =NONE         NUMGRD=       F
 ISPHER=       1     NOSYM =       0     MAXIT =      30     UNITS =ANGS    
 PLTORB=       F     MOLPLT=       F     AIMPAC=       F     FRIEND=        
 NPRINT=       7     IREST =       0     GEOM  =INPUT   
 NORMF =       0     NORMP =       0     ITOL  =      20     ICUT  =       9
 INTTYP=BEST         GRDTYP=BEST         QMTTOL= 1.0E-06

     $SYSTEM OPTIONS
     ---------------
  REPLICATED MEMORY=     1000000 WORDS (ON EVERY NODE).
 DISTRIBUTED MEMDDI=           0 MILLION WORDS IN AGGREGATE,
 MEMDDI DISTRIBUTED OVER   1 PROCESSORS IS           0 WORDS/PROCESSOR.
 TOTAL MEMORY REQUESTED ON EACH PROCESSOR=     1000000 WORDS.
 TIMLIM=      525600.00 MINUTES, OR     365.0 DAYS.
 PARALL= F  BALTYP=  DLB     KDIAG=    0  COREFL= F
 MXSEQ2=     300 MXSEQ3=     150

          ----------------
          PROPERTIES INPUT
          ----------------

     MOMENTS            FIELD           POTENTIAL          DENSITY
 IEMOM =       1   IEFLD =       0   IEPOT =       0   IEDEN =       0
 WHERE =COMASS     WHERE =NUCLEI     WHERE =NUCLEI     WHERE =NUCLEI  
 OUTPUT=BOTH       OUTPUT=BOTH       OUTPUT=BOTH       OUTPUT=BOTH    
 IEMINT=       0   IEFINT=       0                     IEDINT=       0
                                                       MORB  =       0
          EXTRAPOLATION IN EFFECT
          DIIS IN EFFECT
 ORBITAL PRINTING OPTION: NPREO=     1    49     2     1

     -------------------------------
     INTEGRAL TRANSFORMATION OPTIONS
     -------------------------------
     NWORD  =            0
     CUTOFF = 1.0E-09     MPTRAN =       0
     DIRTRF =       F     AOINTS =DUP     

          ----------------------
          INTEGRAL INPUT OPTIONS
          ----------------------
 NOPK  =       1 NORDER=       0 SCHWRZ=       F

   --- ENCODED Z MATRIX ---
 COORD  TYPE   I   J   K   L   M   N
    1      1    3   1
    2      1    2   1
    3      2    2   1   3

 THE DETERMINANT OF THE G MATRIX IS 10**(    -4)

 THE DETERMINANT OF THE G MATRIX IS 10**(    -4)
 * * * WARNING * * *
 YOUR B MATRIX HAS A SMALL DETERMINANT.
 THIS SUGGESTS YOU MAY HAVE BADLY CHOSEN COORDINATES.

     ------------------------------------------
     THE POINT GROUP IS CNV, NAXIS= 2, ORDER= 4
     ------------------------------------------

 -- VARIATIONAL SPACE WILL BE RESTRICTED TO PURE SPHERICAL HARMONICS ONLY --
 AFTER EXCLUDING CONTAMINANT COMBINATIONS FROM THE CARTESIAN GAUSSIAN BASIS
 SET, THE NUMBER OF SPHERICAL HARMONICS KEPT IN THE VARIATION SPACE IS   46

     DIMENSIONS OF THE SYMMETRY SUBSPACES ARE
 A1  =   19     A2  =    5     B1  =   14     B2  =    8

 ..... DONE SETTING UP THE RUN .....
 STEP CPU TIME =     0.01 TOTAL CPU TIME =        0.0 (    0.0 MIN)
 TOTAL WALL CLOCK TIME=        0.0 SECONDS, CPU UTILIZATION IS  50.00%

          ********************
          1 ELECTRON INTEGRALS
          ********************
 ...... END OF ONE-ELECTRON INTEGRALS ......
 STEP CPU TIME =     0.00 TOTAL CPU TIME =        0.0 (    0.0 MIN)
 TOTAL WALL CLOCK TIME=        0.0 SECONDS, CPU UTILIZATION IS  50.00%

          -------------
          GUESS OPTIONS
          -------------
          GUESS =HUCKEL            NORB  =       0          NORDER=       0
          MIX   =       F          PRTMO =       F          PUNMO =       F
          TOLZ  = 1.0E-08          TOLE  = 1.0E-05
          SYMDEN=       F          PURIFY=       F

 INITIAL GUESS ORBITALS GENERATED BY HUCKEL   ROUTINE.
 HUCKEL GUESS REQUIRES     21583 WORDS.

 STATISTICS FOR GENERATION OF SYMMETRY ORBITAL -Q- MATRIX
 NUMBER OF CARTESIAN ATOMIC ORBITALS=         49
 NUMBER OF SPHERICAL CONTAMINANTS DROPPED=     3
 NUMBER OF LINEARLY DEPENDENT MOS DROPPED=     0
 TOTAL NUMBER OF MOS IN VARIATION SPACE=      46

 SYMMETRIES FOR INITIAL GUESS ORBITALS FOLLOW.   BOTH SET(S).
    16 ORBITALS ARE OCCUPIED (    7 CORE ORBITALS).
     8=?A1      9=?B1     10=?A1     11=?B1     12=B2      13=A1      14=A2  
    15=B1      16=?A1     17=B2      18=A1      19=B1      20=A1      21=A1  
    22=A1      23=A1      24=A1      25=A1      26=A1  
 ...... END OF INITIAL ORBITAL SELECTION ......
 STEP CPU TIME =     0.01 TOTAL CPU TIME =        0.0 (    0.0 MIN)
 TOTAL WALL CLOCK TIME=        0.0 SECONDS, CPU UTILIZATION IS  66.67%

                    ----------------------
                    AO INTEGRAL TECHNOLOGY
                    ----------------------
     S,P,L SHELL ROTATED AXIS INTEGRALS, REPROGRAMMED BY
        KAZUYA ISHIMURA (IMS) AND JOSE SIERRA (SYNSTAR).
     S,P,D,L SHELL ROTATED AXIS INTEGRALS PROGRAMMED BY
        KAZUYA ISHIMURA (INSTITUTE FOR MOLECULAR SCIENCE).
     S,P,D,F,G SHELL TO TOTAL QUARTET ANGULAR MOMENTUM SUM 5,
        ERIC PROGRAM BY GRAHAM FLETCHER (ELORET AND NASA ADVANCED
        SUPERCOMPUTING DIVISION, AMES RESEARCH CENTER).
     S,P,D,F,G,L SHELL GENERAL RYS QUADRATURE PROGRAMMED BY
        MICHEL DUPUIS (PACIFIC NORTHWEST NATIONAL LABORATORY).

          --------------------
          2 ELECTRON INTEGRALS
          --------------------

 THE -PK- OPTION IS OFF, THE INTEGRALS ARE NOT IN SUPERMATRIX FORM.
 STORING   15000 INTEGRALS/RECORD ON DISK, USING 12 BYTES/INTEGRAL.
 TWO ELECTRON INTEGRAL EVALUATION REQUIRES   90606 WORDS OF MEMORY.
 II,JST,KST,LST =  1  1  1  1 NREC =         1 INTLOC =    1
 II,JST,KST,LST =  2  1  1  1 NREC =         1 INTLOC =    2
 II,JST,KST,LST =  3  1  1  1 NREC =         1 INTLOC =    7
 II,JST,KST,LST =  4  1  1  1 NREC =         1 INTLOC =   22
 II,JST,KST,LST =  5  1  1  1 NREC =         1 INTLOC =   56
 II,JST,KST,LST =  6  1  1  1 NREC =         1 INTLOC =  125
 II,JST,KST,LST =  7  1  1  1 NREC =         1 INTLOC =  329
 II,JST,KST,LST =  8  1  1  1 NREC =         1 INTLOC =  776
 II,JST,KST,LST =  9  1  1  1 NREC =         1 INTLOC = 2864
 II,JST,KST,LST = 10  1  1  1 NREC =         1 INTLOC = 2864
 II,JST,KST,LST = 11  1  1  1 NREC =         1 INTLOC = 2864
 II,JST,KST,LST = 12  1  1  1 NREC =         1 INTLOC = 2864
 II,JST,KST,LST = 13  1  1  1 NREC =         1 INTLOC = 2864
 II,JST,KST,LST = 14  1  1  1 NREC =         1 INTLOC = 2864
 II,JST,KST,LST = 15  1  1  1 NREC =         1 INTLOC = 2864
 II,JST,KST,LST = 16  1  1  1 NREC =         1 INTLOC = 4682
 II,JST,KST,LST = 17  1  1  1 NREC =         1 INTLOC = 7621
 II,JST,KST,LST = 18  1  1  1 NREC =         1 INTLOC =11902
 II,JST,KST,LST = 19  1  1  1 NREC =         2 INTLOC =12337
 II,JST,KST,LST = 20  1  1  1 NREC =         4 INTLOC =12073
 TOTAL NUMBER OF NONZERO TWO-ELECTRON INTEGRALS =              152290
         11 INTEGRAL RECORDS WERE STORED ON DISK FILE  8.
  ...... END OF TWO-ELECTRON INTEGRALS .....
 STEP CPU TIME =     0.16 TOTAL CPU TIME =        0.2 (    0.0 MIN)
 TOTAL WALL CLOCK TIME=        0.2 SECONDS, CPU UTILIZATION IS 100.00%

          --------------------------
               R-PBE SCF CALCULATION
          --------------------------

     NUCLEAR ENERGY =        78.0707861239
     MAXIT =   30     NPUNCH=    2
     EXTRAP=T  DAMP=F  SHIFT=F  RSTRCT=F  DIIS=T  DEM=F  SOSCF=F
         DENSITY MATRIX CONVERGENCE THRESHOLD=  1.00E-05
     COARSE -> FINE DFT GRID SWITCH THRESHOLD=  3.00E-04 (SWITCH IN $DFT)
                   HF -> DFT SWITCH THRESHOLD=  5.00E-03 (SWOFF IN $DFT)
     MEMORY REQUIRED FOR RHF ITERS=    183108 WORDS.

 DFT CODE IS SWITCHING FROM THE FINE GRID NRAD= 96,  NLEB=  302
                      TO THE COARSE GRID NRAD0= 24, NLEB0=  110

     EXCHANGE FUNCTIONAL   =PBE       
     CORRELATION FUNCTIONAL=PBE       
     DFT THRESHOLD         =.460E-07
     GRID CHANGE THRESHOLD =.300E-03
 FOR AN EULER-MACLAURIN QUADRATURE USING  96 RADIAL POINTS:
 SMALLEST GAUSSIAN PRIMITIVE EXPONENT=        0.1313100000 OF TYPE -P-
 ON ATOM NUMBER   1 HAS RADIAL NORMALIZATION=  1.000000
  LARGEST GAUSSIAN PRIMITIVE EXPONENT=    55510.0000000000 OF TYPE -S-
 ON ATOM NUMBER   1 HAS RADIAL NORMALIZATION=  0.999999
 DFT IS SWITCHED OFF, PERFORMING PURE SCF UNTIL SWOFF THRESHOLD IS REACHED.

 ITER EX DEM     TOTAL ENERGY        E CHANGE  DENSITY CHANGE    DIIS ERROR
   1  0  0     -545.5161888019  -545.5161888019   0.878653721   0.896990265
   2  1  0     -545.0414898500     0.4746989519   1.042622833   0.848278521
   3  2  0     -543.8182465061     1.2232433439   1.654122888   0.855614256
   4  3  0     -537.2171798326     6.6010666735   1.704799741   2.350346546
   5  0  0     -538.1046880219    -0.8875081892   0.862623367   1.255503719
   6  1  0     -545.5076816846    -7.4029936627   1.237163309   0.518271482
   7  2  0     -543.1383507958     2.3693308888   1.287571732   1.333601284
   8  3  0     -542.1061787393     1.0321720565   3.624330835   1.023821141
   9  0  0     -528.0258616052    14.0803171341   3.364079615   2.121285104
  10  1  0     -545.3615102314   -17.3356486262   1.282770248   0.514637755
  11  2  0     -542.6227323840     2.7387778474   1.344712813   1.398554883
  12  3  0     -541.7379408822     0.8847915018   3.710703917   1.052823710
  13  0  0     -526.9928070306    14.7451338515   3.451946641   2.021639027
  14  1  0     -545.2181992682   -18.2253922375   1.320737527   0.528381252
  15  2  0     -542.0795868477     3.1386124205   1.389243958   1.494986198
  16  3  0     -541.3846360077     0.6949508400   3.773415102   1.080816387
  17  0  0     -526.1341474053    15.2504886024   3.515554794   1.922186721
  18  1  0     -545.0951410762   -18.9609936709   1.349689712   0.538389290
  19  2  0     -541.6046160276     3.4905250486   1.420259646   1.595517971
  20  3  0     -541.0900983962     0.5145176314   3.816249747   1.102699612
  21  0  0     -525.4628003415    15.6272980547   3.560524058   1.842235967
  22  1  0     -544.9981249173   -19.5353245758   1.369959912   0.545496014
  23  2  0     -541.2262025971     3.7719223202   1.438985595   1.674680038
  24  3  0     -540.8618895834     0.3643130138   3.845352910   1.118781501
  25  0  0     -524.9575823145    15.9043072689   3.592384128   1.948802987
  26  1  0     -544.9262365002   -19.9686541857   1.390619430   0.550412185
  27  2  0     -540.9423487691     3.9838877311   1.449308014   1.733213094
  28  3  0     -540.6933545523     0.2489942168   3.865102829   1.130176837
  29  0  0     -524.5881645420    16.1051900103   3.614833664   2.028653695
  30  1  0     -544.8749127592   -20.2867482173   1.407899273   0.553773668

 SCF IS UNCONVERGED, TOO MANY ITERATIONS
     TIME TO FORM FOCK OPERATORS=       0.1 SECONDS (       0.0 SEC/ITER)
     TIME TO SOLVE SCF EQUATIONS=       0.0 SECONDS (       0.0 SEC/ITER)

 FINAL R-PBE ENERGY IS        0.0000000000 AFTER  30 ITERATIONS

          ------------
          EIGENVECTORS
          ------------

                      1          2          3          4          5
                  -93.4410   -19.5954   -19.5954   -10.2622    -7.9539
                     A1         A1         B1         A1         B2  
    1  S  1  S    1.003125  -0.000064   0.000000  -0.276283   0.000000
    2  S  1  S   -0.010471  -0.000790   0.000000   1.038841   0.000000
    3  S  1  S    0.002668  -0.001680   0.000000   0.013545   0.000000
    4  S  1  S   -0.001583   0.004123   0.000000  -0.001212   0.000000
    5  S  1  X    0.000000   0.000000   0.000078   0.000000   0.000000
    6  S  1  Y    0.000000   0.000000   0.000000   0.000000   1.002145
    7  S  1  Z   -0.000195  -0.000054   0.000000  -0.031839   0.000000
    8  S  1  X    0.000000   0.000000  -0.000142   0.000000   0.000000
    9  S  1  Y    0.000000   0.000000   0.000000   0.000000  -0.007360
   10  S  1  Z    0.000111   0.000072   0.000000  -0.002428   0.000000
   11  S  1  X    0.000000   0.000000  -0.002431   0.000000   0.000000
   12  S  1  Y    0.000000   0.000000   0.000000   0.000000   0.004550
   13  S  1  Z   -0.000209   0.002005   0.000000   0.001078   0.000000
   14  S  1 XX   -0.000038   0.000659   0.000000  -0.000129   0.000000
   15  S  1 YY    0.000045  -0.000699   0.000000   0.000056   0.000000
   16  S  1 ZZ   -0.000007   0.000040   0.000000   0.000073   0.000000
   17  S  1 XY    0.000000   0.000000   0.000000   0.000000   0.000000
   18  S  1 XZ    0.000000   0.000000  -0.000953   0.000000   0.000000
   19  S  1 YZ    0.000000   0.000000   0.000000   0.000000  -0.002148
   20  O  2  S   -0.000007   0.703362   0.703351  -0.000008   0.000000
   21  O  2  S   -0.000065   0.021721   0.021566   0.000079   0.000000
   22  O  2  S    0.000236  -0.006440  -0.006133  -0.000181   0.000000
   23  O  2  X    0.000012   0.000812   0.000710  -0.000003   0.000000
   24  O  2  Y    0.000000   0.000000   0.000000   0.000000   0.000006
   25  O  2  Z   -0.000018  -0.000722  -0.000794   0.000035   0.000000
   26  O  2  X    0.000082  -0.001560  -0.000992  -0.000021   0.000000
   27  O  2  Y    0.000000   0.000000   0.000000   0.000000  -0.000349
   28  O  2  Z   -0.000016   0.000808   0.001095  -0.000136   0.000000
   29  O  2 XX   -0.000006  -0.000154  -0.000041  -0.000048   0.000000
   30  O  2 YY    0.000011   0.000096   0.000072   0.000034   0.000000
   31  O  2 ZZ   -0.000005   0.000058  -0.000031   0.000014   0.000000
   32  O  2 XY    0.000000   0.000000   0.000000   0.000000  -0.000002
   33  O  2 XZ    0.000019   0.000132   0.000130   0.000048   0.000000
   34  O  2 YZ    0.000000   0.000000   0.000000   0.000000   0.000007
   35  O  3  S   -0.000007   0.703362  -0.703351  -0.000008   0.000000
   36  O  3  S   -0.000065   0.021721  -0.021566   0.000079   0.000000
   37  O  3  S    0.000236  -0.006440   0.006133  -0.000181   0.000000
   38  O  3  X   -0.000012  -0.000812   0.000710   0.000003   0.000000
   39  O  3  Y    0.000000   0.000000   0.000000   0.000000   0.000006
   40  O  3  Z   -0.000018  -0.000722   0.000794   0.000035   0.000000
   41  O  3  X   -0.000082   0.001560  -0.000992   0.000021   0.000000
   42  O  3  Y    0.000000   0.000000   0.000000   0.000000  -0.000349
   43  O  3  Z   -0.000016   0.000808  -0.001095  -0.000136   0.000000
   44  O  3 XX   -0.000006  -0.000154   0.000041  -0.000048   0.000000
   45  O  3 YY    0.000011   0.000096  -0.000072   0.000034   0.000000
   46  O  3 ZZ   -0.000005   0.000058   0.000031   0.000014   0.000000
   47  O  3 XY    0.000000   0.000000   0.000000   0.000000   0.000002
   48  O  3 XZ   -0.000019  -0.000132   0.000130  -0.000048   0.000000
   49  O  3 YZ    0.000000   0.000000   0.000000   0.000000   0.000007

                      6          7          8          9         10
                   -7.9507    -7.9492    -1.5684    -0.9361    -0.8902
                     B1         A1         A1         B1         A1  
    1  S  1  S    0.000000  -0.009273   0.093437   0.000000  -0.006367
    2  S  1  S    0.000000   0.033775  -0.203555   0.000000   0.010054
    3  S  1  S    0.000000  -0.004293   0.695551   0.000000  -0.056132
    4  S  1  S    0.000000   0.001869   0.352558   0.000000  -0.052000
    5  S  1  X    1.002629   0.000000   0.000000  -0.204235   0.000000
    6  S  1  Y    0.000000   0.000000   0.000000   0.000000   0.000000
    7  S  1  Z    0.000000   1.001908   0.034086   0.000000  -0.216195
    8  S  1  X   -0.008934   0.000000   0.000000   0.528972   0.000000
    9  S  1  Y    0.000000   0.000000   0.000000   0.000000   0.000000
   10  S  1  Z    0.000000  -0.008381  -0.088895   0.000000   0.569227
   11  S  1  X    0.003971   0.000000   0.000000   0.174383   0.000000
   12  S  1  Y    0.000000   0.000000   0.000000   0.000000   0.000000
   13  S  1  Z    0.000000   0.004903  -0.013055   0.000000   0.177412
   14  S  1 XX    0.000000   0.001139  -0.017300   0.000000   0.089279
   15  S  1 YY    0.000000   0.001356   0.008737   0.000000   0.000211
   16  S  1 ZZ    0.000000  -0.002494   0.008563   0.000000  -0.089490
   17  S  1 XY    0.000000   0.000000   0.000000   0.000000   0.000000
   18  S  1 XZ   -0.002954   0.000000   0.000000   0.000339   0.000000
   19  S  1 YZ    0.000000   0.000000   0.000000   0.000000   0.000000
   20  O  2  S    0.000054  -0.000008  -0.012517   0.101903  -0.101116
   21  O  2  S    0.000688  -0.000128   0.021908  -0.166771   0.160730
   22  O  2  S   -0.000467  -0.000519   0.013286  -0.279843   0.297436
   23  O  2  X    0.000363  -0.000206   0.012389  -0.063845   0.071289
   24  O  2  Y    0.000000   0.000000   0.000000   0.000000   0.000000
   25  O  2  Z   -0.000189   0.000121  -0.013926   0.070405  -0.041832
   26  O  2  X   -0.001399   0.000290  -0.000948  -0.048795   0.050177
   27  O  2  Y    0.000000   0.000000   0.000000   0.000000   0.000000
   28  O  2  Z    0.000608  -0.000486  -0.000725   0.053379  -0.053879
   29  O  2 XX   -0.000401   0.000211   0.001403  -0.003296   0.003565
   30  O  2 YY    0.000362  -0.000192  -0.001470   0.005677  -0.005099
   31  O  2 ZZ    0.000039  -0.000018   0.000068  -0.002381   0.001535
   32  O  2 XY    0.000000   0.000000   0.000000   0.000000   0.000000
   33  O  2 XZ    0.000584  -0.000299  -0.002549   0.010329  -0.009519
   34  O  2 YZ    0.000000   0.000000   0.000000   0.000000   0.000000
   35  O  3  S   -0.000054  -0.000008  -0.012517  -0.101903  -0.101116
   36  O  3  S   -0.000688  -0.000128   0.021908   0.166771   0.160730
   37  O  3  S    0.000467  -0.000519   0.013286   0.279843   0.297436
   38  O  3  X    0.000363   0.000206  -0.012389  -0.063845  -0.071289
   39  O  3  Y    0.000000   0.000000   0.000000   0.000000   0.000000
   40  O  3  Z    0.000189   0.000121  -0.013926  -0.070405  -0.041832
   41  O  3  X   -0.001399  -0.000290   0.000948  -0.048795  -0.050177
   42  O  3  Y    0.000000   0.000000   0.000000   0.000000   0.000000
   43  O  3  Z   -0.000608  -0.000486  -0.000725  -0.053379  -0.053879
   44  O  3 XX    0.000401   0.000211   0.001403   0.003296   0.003565
   45  O  3 YY   -0.000362  -0.000192  -0.001470  -0.005677  -0.005099
   46  O  3 ZZ   -0.000039  -0.000018   0.000068   0.002381   0.001535
   47  O  3 XY    0.000000   0.000000   0.000000   0.000000   0.000000
   48  O  3 XZ    0.000584   0.000299   0.002549   0.010329   0.009519
   49  O  3 YZ    0.000000   0.000000   0.000000   0.000000   0.000000

                     11         12         13         14         15
                   -0.7582    -0.6350    -0.6081    -0.1303    -0.1252
                     B2         A1         B1         A1         B1  
    1  S  1  S    0.000000   0.025244   0.000000   0.013679   0.000000
    2  S  1  S    0.000000  -0.004404   0.000000   0.021701   0.000000
    3  S  1  S    0.000000   0.266330   0.000000   0.180016   0.000000
    4  S  1  S    0.000000  -0.054170   0.000000  -0.064318   0.000000
    5  S  1  X    0.000000   0.000000  -0.234578   0.000000   0.027861
    6  S  1  Y   -0.311365   0.000000   0.000000   0.000000   0.000000
    7  S  1  Z    0.000000  -0.215723   0.000000   0.043959   0.000000
    8  S  1  X    0.000000   0.000000   0.656564   0.000000  -0.146505
    9  S  1  Y    0.837466   0.000000   0.000000   0.000000   0.000000
   10  S  1  Z    0.000000   0.593334   0.000000  -0.185394   0.000000
   11  S  1  X    0.000000   0.000000   0.205818   0.000000   0.498686
   12  S  1  Y    0.284393   0.000000   0.000000   0.000000   0.000000
   13  S  1  Z    0.000000   0.210721   0.000000   0.287285   0.000000
   14  S  1 XX    0.000000  -0.012042   0.000000  -0.320370   0.000000
   15  S  1 YY    0.000000   0.116536   0.000000   0.098243   0.000000
   16  S  1 ZZ    0.000000  -0.104493   0.000000   0.222127   0.000000
   17  S  1 XY    0.000000   0.000000   0.000000   0.000000   0.000000
   18  S  1 XZ    0.000000   0.000000  -0.175044   0.000000  -0.387944
   19  S  1 YZ   -0.123130   0.000000   0.000000   0.000000   0.000000
   20  O  2  S    0.000000   0.118259  -0.117785  -0.022904   0.018088
   21  O  2  S    0.000000  -0.177886   0.170497   0.063350  -0.077966
   22  O  2  S    0.000000  -0.419538   0.440809   0.010524   0.089807
   23  O  2  X    0.000000   0.030712  -0.009312   0.043788   0.294918
   24  O  2  Y    0.042473   0.000000   0.000000   0.000000   0.000000
   25  O  2  Z    0.000000   0.028598   0.022204   0.300089   0.017313
   26  O  2  X    0.000000   0.008126   0.010842   0.030470   0.400461
   27  O  2  Y    0.014268   0.000000   0.000000   0.000000   0.000000
   28  O  2  Z    0.000000   0.031633  -0.005894   0.379168  -0.040021
   29  O  2 XX    0.000000   0.002400   0.001412   0.012486   0.019097
   30  O  2 YY    0.000000   0.000760  -0.000182   0.007755  -0.010246
   31  O  2 ZZ    0.000000  -0.003160  -0.001230  -0.020242  -0.008851
   32  O  2 XY    0.001426   0.000000   0.000000   0.000000   0.000000
   33  O  2 XZ    0.000000   0.001394  -0.001030   0.013548  -0.019980
   34  O  2 YZ   -0.001806   0.000000   0.000000   0.000000   0.000000
   35  O  3  S    0.000000   0.118259   0.117785  -0.022904  -0.018088
   36  O  3  S    0.000000  -0.177886  -0.170497   0.063350   0.077966
   37  O  3  S    0.000000  -0.419538  -0.440809   0.010524  -0.089807
   38  O  3  X    0.000000  -0.030712  -0.009312  -0.043788   0.294918
   39  O  3  Y    0.042473   0.000000   0.000000   0.000000   0.000000
   40  O  3  Z    0.000000   0.028598  -0.022204   0.300089  -0.017313
   41  O  3  X    0.000000  -0.008126   0.010842  -0.030470   0.400461
   42  O  3  Y    0.014268   0.000000   0.000000   0.000000   0.000000
   43  O  3  Z    0.000000   0.031633   0.005894   0.379168   0.040021
   44  O  3 XX    0.000000   0.002400  -0.001412   0.012486  -0.019097
   45  O  3 YY    0.000000   0.000760   0.000182   0.007755   0.010246
   46  O  3 ZZ    0.000000  -0.003160   0.001230  -0.020242   0.008851
   47  O  3 XY   -0.001426   0.000000   0.000000   0.000000   0.000000
   48  O  3 XZ    0.000000  -0.001394  -0.001030  -0.013548  -0.019980
   49  O  3 YZ   -0.001806   0.000000   0.000000   0.000000   0.000000

                     16         17         18         19         20
                   -0.1076    -0.0845    -0.0391    -0.0214     0.0415
                     A2         B2         A1         B1         A1  
    1  S  1  S    0.000000   0.000000  -0.026364   0.000000  -0.067765
    2  S  1  S    0.000000   0.000000  -0.032645   0.000000  -0.272297
    3  S  1  S    0.000000   0.000000  -0.334664   0.000000  -1.097825
    4  S  1  S    0.000000   0.000000   0.094359   0.000000   1.289539
    5  S  1  X    0.000000   0.000000   0.000000   0.088727   0.000000
    6  S  1  Y    0.000000   0.086735   0.000000   0.000000   0.000000
    7  S  1  Z    0.000000   0.000000   0.017799   0.000000  -0.185329
    8  S  1  X    0.000000   0.000000   0.000000  -0.303104   0.000000
    9  S  1  Y    0.000000  -0.315216   0.000000   0.000000   0.000000
   10  S  1  Z    0.000000   0.000000  -0.015781   0.000000   0.753450
   11  S  1  X    0.000000   0.000000   0.000000  -0.005946   0.000000
   12  S  1  Y    0.000000   0.187934   0.000000   0.000000   0.000000
   13  S  1  Z    0.000000   0.000000  -0.354606   0.000000  -0.821214
   14  S  1 XX    0.000000   0.000000   0.095940   0.000000  -0.263048
   15  S  1 YY    0.000000   0.000000  -0.419802   0.000000   0.295749
   16  S  1 ZZ    0.000000   0.000000   0.323862   0.000000  -0.032701
   17  S  1 XY   -0.349831   0.000000   0.000000   0.000000   0.000000
   18  S  1 XZ    0.000000   0.000000   0.000000   0.242237   0.000000
   19  S  1 YZ    0.000000   0.314614   0.000000   0.000000   0.000000
   20  O  2  S    0.000000   0.000000   0.014531  -0.019028  -0.000829
   21  O  2  S    0.000000   0.000000  -0.049872   0.045603  -0.003954
   22  O  2  S    0.000000   0.000000   0.024282   0.042861   0.035802
   23  O  2  X    0.000000   0.000000   0.304299   0.031213  -0.048447
   24  O  2  Y    0.321094   0.321884   0.000000   0.000000   0.000000
   25  O  2  Z    0.000000   0.000000  -0.024962   0.351854   0.058325
   26  O  2  X    0.000000   0.000000   0.424034   0.041223  -0.016239
   27  O  2  Y    0.419791   0.393652   0.000000   0.000000   0.000000
   28  O  2  Z    0.000000   0.000000  -0.006003   0.433188   0.151658
   29  O  2 XX    0.000000   0.000000   0.019082   0.009697   0.002343
   30  O  2 YY    0.000000   0.000000  -0.010102   0.008089   0.007285
   31  O  2 ZZ    0.000000   0.000000  -0.008980  -0.017786  -0.009628
   32  O  2 XY    0.018508   0.015860   0.000000   0.000000   0.000000
   33  O  2 XZ    0.000000   0.000000  -0.013576   0.012835   0.013512
   34  O  2 YZ   -0.019015  -0.015031   0.000000   0.000000   0.000000
   35  O  3  S    0.000000   0.000000   0.014531   0.019028  -0.000829
   36  O  3  S    0.000000   0.000000  -0.049872  -0.045603  -0.003954
   37  O  3  S    0.000000   0.000000   0.024282  -0.042861   0.035802
   38  O  3  X    0.000000   0.000000  -0.304299   0.031213   0.048447
   39  O  3  Y   -0.321094   0.321884   0.000000   0.000000   0.000000
   40  O  3  Z    0.000000   0.000000  -0.024962  -0.351854   0.058325
   41  O  3  X    0.000000   0.000000  -0.424034   0.041223   0.016239
   42  O  3  Y   -0.419791   0.393652   0.000000   0.000000   0.000000
   43  O  3  Z    0.000000   0.000000  -0.006003  -0.433188   0.151658
   44  O  3 XX    0.000000   0.000000   0.019082  -0.009697   0.002343
   45  O  3 YY    0.000000   0.000000  -0.010102  -0.008089   0.007285
   46  O  3 ZZ    0.000000   0.000000  -0.008980   0.017786  -0.009628
   47  O  3 XY    0.018508  -0.015860   0.000000   0.000000   0.000000
   48  O  3 XZ    0.000000   0.000000   0.013576   0.012835  -0.013512
   49  O  3 YZ    0.019015  -0.015031   0.000000   0.000000   0.000000

                     21         22         23         24         25
                    0.1754     0.2273     0.2318     0.2327     0.2449
                     B2         B1         A1         A2         B2  
    1  S  1  S    0.000000   0.000000  -0.034155   0.000000   0.000000
    2  S  1  S    0.000000   0.000000  -0.108760   0.000000   0.000000
    3  S  1  S    0.000000   0.000000  -0.518055   0.000000   0.000000
    4  S  1  S    0.000000   0.000000   0.494866   0.000000   0.000000
    5  S  1  X    0.000000   0.238736   0.000000   0.000000   0.000000
    6  S  1  Y    0.219396   0.000000   0.000000   0.000000   0.102742
    7  S  1  Z    0.000000   0.000000   0.151043   0.000000   0.000000
    8  S  1  X    0.000000  -1.024108   0.000000   0.000000   0.000000
    9  S  1  Y   -0.888918   0.000000   0.000000   0.000000  -0.497330
   10  S  1  Z    0.000000   0.000000  -0.572576   0.000000   0.000000
   11  S  1  X    0.000000   1.433510   0.000000   0.000000   0.000000
   12  S  1  Y    0.987599   0.000000   0.000000   0.000000   0.849971
   13  S  1  Z    0.000000   0.000000   0.449546   0.000000   0.000000
   14  S  1 XX    0.000000   0.000000  -0.003780   0.000000   0.000000
   15  S  1 YY    0.000000   0.000000   0.665757   0.000000   0.000000
   16  S  1 ZZ    0.000000   0.000000  -0.661977   0.000000   0.000000
   17  S  1 XY    0.000000   0.000000   0.000000   0.935941   0.000000
   18  S  1 XZ    0.000000  -0.116091   0.000000   0.000000   0.000000
   19  S  1 YZ   -0.610129   0.000000   0.000000   0.000000   0.715036
   20  O  2  S    0.000000  -0.024590   0.003336   0.000000   0.000000
   21  O  2  S    0.000000  -0.055454   0.030262   0.000000   0.000000
   22  O  2  S    0.000000   0.457196  -0.138278   0.000000   0.000000
   23  O  2  X    0.000000  -0.188635   0.188103   0.000000   0.000000
   24  O  2  Y    0.017280   0.000000   0.000000   0.188135  -0.190914
   25  O  2  Z    0.000000  -0.016615  -0.021708   0.000000   0.000000
   26  O  2  X    0.000000  -0.067073   0.112839   0.000000   0.000000
   27  O  2  Y   -0.101573   0.000000   0.000000   0.184165  -0.280678
   28  O  2  Z    0.000000  -0.198388  -0.030976   0.000000   0.000000
   29  O  2 XX    0.000000   0.000455  -0.011060   0.000000   0.000000
   30  O  2 YY    0.000000  -0.007525   0.005755   0.000000   0.000000
   31  O  2 ZZ    0.000000   0.007071   0.005305   0.000000   0.000000
   32  O  2 XY   -0.012971   0.000000   0.000000  -0.005183  -0.001555
   33  O  2 XZ    0.000000  -0.012704  -0.000626   0.000000   0.000000
   34  O  2 YZ    0.006411   0.000000   0.000000   0.003749   0.006614
   35  O  3  S    0.000000   0.024590   0.003336   0.000000   0.000000
   36  O  3  S    0.000000   0.055454   0.030262   0.000000   0.000000
   37  O  3  S    0.000000  -0.457196  -0.138278   0.000000   0.000000
   38  O  3  X    0.000000  -0.188635  -0.188103   0.000000   0.000000
   39  O  3  Y    0.017280   0.000000   0.000000  -0.188135  -0.190914
   40  O  3  Z    0.000000   0.016615  -0.021708   0.000000   0.000000
   41  O  3  X    0.000000  -0.067073  -0.112839   0.000000   0.000000
   42  O  3  Y   -0.101573   0.000000   0.000000  -0.184165  -0.280678
   43  O  3  Z    0.000000   0.198388  -0.030976   0.000000   0.000000
   44  O  3 XX    0.000000  -0.000455  -0.011060   0.000000   0.000000
   45  O  3 YY    0.000000   0.007525   0.005755   0.000000   0.000000
   46  O  3 ZZ    0.000000  -0.007071   0.005305   0.000000   0.000000
   47  O  3 XY    0.012971   0.000000   0.000000  -0.005183   0.001555
   48  O  3 XZ    0.000000  -0.012704   0.000626   0.000000   0.000000
   49  O  3 YZ    0.006411   0.000000   0.000000  -0.003749   0.006614

                     26         27         28         29         30
                    0.3025     0.5187     0.5712     1.5026     1.5050
                     A1         B1         A1         A2         A1  
    1  S  1  S    0.016546   0.000000  -0.076517   0.000000  -0.002022
    2  S  1  S    0.046363   0.000000  -0.427317   0.000000  -0.008499
    3  S  1  S    0.242506   0.000000  -1.397256   0.000000  -0.033957
    4  S  1  S   -0.206591   0.000000   2.043909   0.000000   0.035490
    5  S  1  X    0.000000  -0.006912   0.000000   0.000000   0.000000
    6  S  1  Y    0.000000   0.000000   0.000000   0.000000   0.000000
    7  S  1  Z   -0.058142   0.000000   0.075794   0.000000   0.005432
    8  S  1  X    0.000000  -0.096621   0.000000   0.000000   0.000000
    9  S  1  Y    0.000000   0.000000   0.000000   0.000000   0.000000
   10  S  1  Z    0.285067   0.000000  -0.414541   0.000000  -0.048548
   11  S  1  X    0.000000   0.870568   0.000000   0.000000   0.000000
   12  S  1  Y    0.000000   0.000000   0.000000   0.000000   0.000000
   13  S  1  Z   -0.468787   0.000000   1.077506   0.000000   0.221679
   14  S  1 XX    0.827002   0.000000   0.406795   0.000000  -0.160153
   15  S  1 YY   -0.217434   0.000000  -0.512213   0.000000  -0.003415
   16  S  1 ZZ   -0.609568   0.000000   0.105417   0.000000   0.163568
   17  S  1 XY    0.000000   0.000000   0.000000  -0.153618   0.000000
   18  S  1 XZ    0.000000   0.923168   0.000000   0.000000   0.000000
   19  S  1 YZ    0.000000   0.000000   0.000000   0.000000   0.000000
   20  O  2  S   -0.001707  -0.047648   0.056821   0.000000   0.009087
   21  O  2  S   -0.017425   0.058548  -0.054523   0.000000  -0.112379
   22  O  2  S    0.098652   0.351931  -0.503463   0.000000   0.058510
   23  O  2  X    0.008987   0.163739  -0.131846   0.000000   0.392893
   24  O  2  Y    0.000000   0.000000   0.000000   0.711308   0.000000
   25  O  2  Z    0.218851  -0.137153   0.052764   0.000000   0.585884
   26  O  2  X    0.048306   0.331277  -0.452889   0.000000  -0.398446
   27  O  2  Y    0.000000   0.000000   0.000000  -0.674507   0.000000
   28  O  2  Z    0.221673  -0.284643   0.162489   0.000000  -0.567915
   29  O  2 XX   -0.001902  -0.006756  -0.016238   0.000000   0.011661
   30  O  2 YY   -0.001647  -0.002405   0.011962   0.000000   0.004332
   31  O  2 ZZ    0.003548   0.009161   0.004276   0.000000  -0.015992
   32  O  2 XY    0.000000   0.000000   0.000000   0.009442   0.000000
   33  O  2 XZ   -0.007527  -0.003881   0.021846   0.000000   0.010652
   34  O  2 YZ    0.000000   0.000000   0.000000  -0.007130   0.000000
   35  O  3  S   -0.001707   0.047648   0.056821   0.000000   0.009087
   36  O  3  S   -0.017425  -0.058548  -0.054523   0.000000  -0.112379
   37  O  3  S    0.098652  -0.351931  -0.503463   0.000000   0.058510
   38  O  3  X   -0.008987   0.163739   0.131846   0.000000  -0.392893
   39  O  3  Y    0.000000   0.000000   0.000000  -0.711308   0.000000
   40  O  3  Z    0.218851   0.137153   0.052764   0.000000   0.585884
   41  O  3  X   -0.048306   0.331277   0.452889   0.000000   0.398446
   42  O  3  Y    0.000000   0.000000   0.000000   0.674507   0.000000
   43  O  3  Z    0.221673   0.284643   0.162489   0.000000  -0.567915
   44  O  3 XX   -0.001902   0.006756  -0.016238   0.000000   0.011661
   45  O  3 YY   -0.001647   0.002405   0.011962   0.000000   0.004332
   46  O  3 ZZ    0.003548  -0.009161   0.004276   0.000000  -0.015992
   47  O  3 XY    0.000000   0.000000   0.000000   0.009442   0.000000
   48  O  3 XZ    0.007527  -0.003881  -0.021846   0.000000  -0.010652
   49  O  3 YZ    0.000000   0.000000   0.000000   0.007130   0.000000

                     31         32         33         34         35
                    1.5370     1.5544     1.6138     1.6248     2.1710
                     B2         B1         A1         B1         B1  
    1  S  1  S    0.000000   0.000000  -0.001176   0.000000   0.000000
    2  S  1  S    0.000000   0.000000   0.082423   0.000000   0.000000
    3  S  1  S    0.000000   0.000000   0.081646   0.000000   0.000000
    4  S  1  S    0.000000   0.000000  -0.603590   0.000000   0.000000
    5  S  1  X    0.000000  -0.006698   0.000000  -0.048669  -0.020302
    6  S  1  Y   -0.007245   0.000000   0.000000   0.000000   0.000000
    7  S  1  Z    0.000000   0.000000   0.032752   0.000000   0.000000
    8  S  1  X    0.000000   0.054807   0.000000   0.239466   0.029897
    9  S  1  Y    0.060025   0.000000   0.000000   0.000000   0.000000
   10  S  1  Z    0.000000   0.000000  -0.156125   0.000000   0.000000
   11  S  1  X    0.000000  -0.306992   0.000000   0.191559   0.607978
   12  S  1  Y   -0.277277   0.000000   0.000000   0.000000   0.000000
   13  S  1  Z    0.000000   0.000000  -0.190587   0.000000   0.000000
   14  S  1 XX    0.000000   0.000000  -0.113255   0.000000   0.000000
   15  S  1 YY    0.000000   0.000000   0.116430   0.000000   0.000000
   16  S  1 ZZ    0.000000   0.000000  -0.003175   0.000000   0.000000
   17  S  1 XY    0.000000   0.000000   0.000000   0.000000   0.000000
   18  S  1 XZ    0.000000  -0.004002   0.000000   0.165580   0.306383
   19  S  1 YZ   -0.120473   0.000000   0.000000   0.000000   0.000000
   20  O  2  S    0.000000   0.008039  -0.025276  -0.020011   0.043047
   21  O  2  S    0.000000  -0.013241   0.140017   0.111412  -1.187857
   22  O  2  S    0.000000  -0.084590   0.031826   0.013370   1.327895
   23  O  2  X    0.000000  -0.361506  -0.571547  -0.607845  -0.073920
   24  O  2  Y   -0.712709   0.000000   0.000000   0.000000   0.000000
   25  O  2  Z    0.000000  -0.613687   0.399843   0.354217   0.079652
   26  O  2  X    0.000000   0.311936   0.711355   0.700368   0.246294
   27  O  2  Y    0.722191   0.000000   0.000000   0.000000   0.000000
   28  O  2  Z    0.000000   0.650221  -0.476922  -0.430357  -0.258178
   29  O  2 XX    0.000000  -0.009372  -0.022732  -0.023190  -0.033386
   30  O  2 YY    0.000000   0.001150   0.019379   0.023178   0.046800
   31  O  2 ZZ    0.000000   0.008223   0.003354   0.000011  -0.013414
   32  O  2 XY   -0.014708   0.000000   0.000000   0.000000   0.000000
   33  O  2 XZ    0.000000  -0.005592   0.032247   0.034851   0.082152
   34  O  2 YZ    0.009737   0.000000   0.000000   0.000000   0.000000
   35  O  3  S    0.000000  -0.008039  -0.025276   0.020011  -0.043047
   36  O  3  S    0.000000   0.013241   0.140017  -0.111412   1.187857
   37  O  3  S    0.000000   0.084590   0.031826  -0.013370  -1.327895
   38  O  3  X    0.000000  -0.361506   0.571547  -0.607845  -0.073920
   39  O  3  Y   -0.712709   0.000000   0.000000   0.000000   0.000000
   40  O  3  Z    0.000000   0.613687   0.399843  -0.354217  -0.079652
   41  O  3  X    0.000000   0.311936  -0.711355   0.700368   0.246294
   42  O  3  Y    0.722191   0.000000   0.000000   0.000000   0.000000
   43  O  3  Z    0.000000  -0.650221  -0.476922   0.430357   0.258178
   44  O  3 XX    0.000000   0.009372  -0.022732   0.023190   0.033386
   45  O  3 YY    0.000000  -0.001150   0.019379  -0.023178  -0.046800
   46  O  3 ZZ    0.000000  -0.008223   0.003354  -0.000011   0.013414
   47  O  3 XY    0.014708   0.000000   0.000000   0.000000   0.000000
   48  O  3 XZ    0.000000  -0.005592  -0.032247   0.034851   0.082152
   49  O  3 YZ    0.009737   0.000000   0.000000   0.000000   0.000000

                     36         37         38         39         40
                    2.2599     2.9694     2.9726     2.9818     2.9949
                     A1         B1         A2         B2         A1  
    1  S  1  S    0.021083   0.000000   0.000000   0.000000  -0.001578
    2  S  1  S    0.229037   0.000000   0.000000   0.000000  -0.008174
    3  S  1  S    0.522603   0.000000   0.000000   0.000000  -0.027626
    4  S  1  S   -1.154589   0.000000   0.000000   0.000000   0.043488
    5  S  1  X    0.000000   0.000825   0.000000   0.000000   0.000000
    6  S  1  Y    0.000000   0.000000   0.000000   0.000395   0.000000
    7  S  1  Z    0.010146   0.000000   0.000000   0.000000   0.003058
    8  S  1  X    0.000000  -0.021642   0.000000   0.000000   0.000000
    9  S  1  Y    0.000000   0.000000   0.000000  -0.023178   0.000000
   10  S  1  Z    0.007995   0.000000   0.000000   0.000000  -0.022621
   11  S  1  X    0.000000   0.118690   0.000000   0.000000   0.000000
   12  S  1  Y    0.000000   0.000000   0.000000   0.097916   0.000000
   13  S  1  Z   -0.564359   0.000000   0.000000   0.000000   0.071318
   14  S  1 XX   -0.188680   0.000000   0.000000   0.000000  -0.052130
   15  S  1 YY    0.221676   0.000000   0.000000   0.000000   0.010383
   16  S  1 ZZ   -0.032996   0.000000   0.000000   0.000000   0.041747
   17  S  1 XY    0.000000   0.000000   0.083007   0.000000   0.000000
   18  S  1 XZ    0.000000  -0.006982   0.000000   0.000000   0.000000
   19  S  1 YZ    0.000000   0.000000   0.000000   0.056318   0.000000
   20  O  2  S    0.036218   0.000169   0.000000   0.000000   0.000055
   21  O  2  S   -1.189697  -0.053933   0.000000   0.000000   0.025682
   22  O  2  S    1.396672   0.086453   0.000000   0.000000  -0.042998
   23  O  2  X   -0.149041   0.008281   0.000000   0.000000   0.012764
   24  O  2  Y    0.000000   0.000000  -0.025126   0.037322   0.000000
   25  O  2  Z    0.009787   0.031606   0.000000   0.000000   0.021202
   26  O  2  X    0.455906   0.016382   0.000000   0.000000  -0.025308
   27  O  2  Y    0.000000   0.000000   0.005201  -0.033143   0.000000
   28  O  2  Z   -0.134758  -0.033377   0.000000   0.000000  -0.009596
   29  O  2 XX   -0.094878  -0.545053   0.000000   0.000000  -0.094225
   30  O  2 YY    0.056850  -0.080064   0.000000   0.000000  -0.554474
   31  O  2 ZZ    0.038029   0.625117   0.000000   0.000000   0.648699
   32  O  2 XY    0.000000   0.000000   0.542793  -0.402287   0.000000
   33  O  2 XZ    0.073362  -0.196357   0.000000   0.000000   0.098175
   34  O  2 YZ    0.000000   0.000000  -0.454082   0.584370   0.000000
   35  O  3  S    0.036218  -0.000169   0.000000   0.000000   0.000055
   36  O  3  S   -1.189697   0.053933   0.000000   0.000000   0.025682
   37  O  3  S    1.396672  -0.086453   0.000000   0.000000  -0.042998
   38  O  3  X    0.149041   0.008281   0.000000   0.000000  -0.012764
   39  O  3  Y    0.000000   0.000000   0.025126   0.037322   0.000000
   40  O  3  Z    0.009787  -0.031606   0.000000   0.000000   0.021202
   41  O  3  X   -0.455906   0.016382   0.000000   0.000000   0.025308
   42  O  3  Y    0.000000   0.000000  -0.005201  -0.033143   0.000000
   43  O  3  Z   -0.134758   0.033377   0.000000   0.000000  -0.009596
   44  O  3 XX   -0.094878   0.545053   0.000000   0.000000  -0.094225
   45  O  3 YY    0.056850   0.080064   0.000000   0.000000  -0.554474
   46  O  3 ZZ    0.038029  -0.625117   0.000000   0.000000   0.648699
   47  O  3 XY    0.000000   0.000000   0.542793   0.402287   0.000000
   48  O  3 XZ   -0.073362  -0.196357   0.000000   0.000000  -0.098175
   49  O  3 YZ    0.000000   0.000000   0.454082   0.584370   0.000000

                     41         42         43         44         45
                    2.9975     2.9977     2.9997     3.0041     3.0867
                     A2         B1         B2         A1         A1  
    1  S  1  S    0.000000   0.000000   0.000000   0.002407  -0.004377
    2  S  1  S    0.000000   0.000000   0.000000   0.006530  -0.118048
    3  S  1  S    0.000000   0.000000   0.000000   0.034465  -0.200582
    4  S  1  S    0.000000   0.000000   0.000000  -0.037532   0.569924
    5  S  1  X    0.000000   0.002168   0.000000   0.000000   0.000000
    6  S  1  Y    0.000000   0.000000  -0.000037   0.000000   0.000000
    7  S  1  Z    0.000000   0.000000   0.000000  -0.007045  -0.034954
    8  S  1  X    0.000000  -0.010053   0.000000   0.000000   0.000000
    9  S  1  Y    0.000000   0.000000   0.008548   0.000000   0.000000
   10  S  1  Z    0.000000   0.000000   0.000000   0.042475   0.095868
   11  S  1  X    0.000000   0.012497   0.000000   0.000000   0.000000
   12  S  1  Y    0.000000   0.000000  -0.038376   0.000000   0.000000
   13  S  1  Z    0.000000   0.000000   0.000000  -0.101412   0.238156
   14  S  1 XX    0.000000   0.000000   0.000000   0.086589   0.161117
   15  S  1 YY    0.000000   0.000000   0.000000  -0.006788  -0.192265
   16  S  1 ZZ    0.000000   0.000000   0.000000  -0.079801   0.031148
   17  S  1 XY    0.000017   0.000000   0.000000   0.000000   0.000000
   18  S  1 XZ    0.000000  -0.004504   0.000000   0.000000   0.000000
   19  S  1 YZ    0.000000   0.000000  -0.033384   0.000000   0.000000
   20  O  2  S    0.000000  -0.000082   0.000000  -0.000314  -0.000910
   21  O  2  S    0.000000   0.000514   0.000000  -0.025940   0.303420
   22  O  2  S    0.000000   0.002026   0.000000   0.047929  -0.431854
   23  O  2  X    0.000000   0.005256   0.000000  -0.006536   0.106034
   24  O  2  Y    0.000526   0.000000  -0.011539   0.000000   0.000000
   25  O  2  Z    0.000000   0.000846   0.000000  -0.032020  -0.045470
   26  O  2  X    0.000000  -0.007954   0.000000   0.025035  -0.248141
   27  O  2  Y    0.002797   0.000000   0.016644   0.000000   0.000000
   28  O  2  Z    0.000000  -0.004372   0.000000   0.024754   0.119516
   29  O  2 XX    0.000000  -0.288089   0.000000   0.498548  -0.494212
   30  O  2 YY    0.000000   0.619480   0.000000  -0.243751   0.367565
   31  O  2 ZZ    0.000000  -0.331391   0.000000  -0.254797   0.126647
   32  O  2 XY    0.453796   0.000000   0.583927   0.000000   0.000000
   33  O  2 XZ    0.000000  -0.340054   0.000000   0.504596   0.492394
   34  O  2 YZ    0.542275   0.000000   0.399524   0.000000   0.000000
   35  O  3  S    0.000000   0.000082   0.000000  -0.000314  -0.000910
   36  O  3  S    0.000000  -0.000514   0.000000  -0.025940   0.303420
   37  O  3  S    0.000000  -0.002026   0.000000   0.047929  -0.431854
   38  O  3  X    0.000000   0.005256   0.000000   0.006536  -0.106034
   39  O  3  Y   -0.000526   0.000000  -0.011539   0.000000   0.000000
   40  O  3  Z    0.000000  -0.000846   0.000000  -0.032020  -0.045470
   41  O  3  X    0.000000  -0.007954   0.000000  -0.025035   0.248141
   42  O  3  Y   -0.002797   0.000000   0.016644   0.000000   0.000000
   43  O  3  Z    0.000000   0.004372   0.000000   0.024754   0.119516
   44  O  3 XX    0.000000   0.288089   0.000000   0.498548  -0.494212
   45  O  3 YY    0.000000  -0.619480   0.000000  -0.243751   0.367565
   46  O  3 ZZ    0.000000   0.331391   0.000000  -0.254797   0.126647
   47  O  3 XY    0.453796   0.000000  -0.583927   0.000000   0.000000
   48  O  3 XZ    0.000000  -0.340054   0.000000  -0.504596  -0.492394
   49  O  3 YZ   -0.542275   0.000000   0.399524   0.000000   0.000000

                     46
                    3.1074
                     B1  
    1  S  1  S    0.000000
    2  S  1  S    0.000000
    3  S  1  S    0.000000
    4  S  1  S    0.000000
    5  S  1  X    0.052609
    6  S  1  Y    0.000000
    7  S  1  Z    0.000000
    8  S  1  X   -0.163747
    9  S  1  Y    0.000000
   10  S  1  Z    0.000000
   11  S  1  X   -0.197067
   12  S  1  Y    0.000000
   13  S  1  Z    0.000000
   14  S  1 XX    0.000000
   15  S  1 YY    0.000000
   16  S  1 ZZ    0.000000
   17  S  1 XY    0.000000
   18  S  1 XZ   -0.275589
   19  S  1 YZ    0.000000
   20  O  2  S   -0.000835
   21  O  2  S    0.230317
   22  O  2  S   -0.315892
   23  O  2  X    0.077959
   24  O  2  Y    0.000000
   25  O  2  Z   -0.059278
   26  O  2  X   -0.162066
   27  O  2  Y    0.000000
   28  O  2  Z    0.137639
   29  O  2 XX   -0.352271
   30  O  2 YY    0.335446
   31  O  2 ZZ    0.016824
   32  O  2 XY    0.000000
   33  O  2 XZ    0.594913
   34  O  2 YZ    0.000000
   35  O  3  S    0.000835
   36  O  3  S   -0.230317
   37  O  3  S    0.315892
   38  O  3  X    0.077959
   39  O  3  Y    0.000000
   40  O  3  Z    0.059278
   41  O  3  X   -0.162066
   42  O  3  Y    0.000000
   43  O  3  Z   -0.137639
   44  O  3 XX    0.352271
   45  O  3 YY   -0.335446
   46  O  3 ZZ   -0.016824
   47  O  3 XY    0.000000
   48  O  3 XZ    0.594913
   49  O  3 YZ    0.000000
 ...... END OF RHF CALCULATION ......
 STEP CPU TIME =     0.12 TOTAL CPU TIME =        0.3 (    0.0 MIN)
 TOTAL WALL CLOCK TIME=        0.3 SECONDS, CPU UTILIZATION IS  96.77%

     ---------------------------------------------------------------------
     PROPERTIES FOR THE PBE      DFT FUNCTIONAL (RHF  TYPE) DENSITY MATRIX
     ---------------------------------------------------------------------

          -----------------
          ENERGY COMPONENTS
          -----------------

         WAVEFUNCTION NORMALIZATION =       1.0000000000

                ONE ELECTRON ENERGY =    -915.7939368828
                TWO ELECTRON ENERGY =     837.7231507589
           NUCLEAR REPULSION ENERGY =      78.0707861239
                                      ------------------
                       TOTAL ENERGY =       0.0000000000

 ELECTRON-ELECTRON POTENTIAL ENERGY =     837.7231507589
  NUCLEUS-ELECTRON POTENTIAL ENERGY =   -1460.7768754091
   NUCLEUS-NUCLEUS POTENTIAL ENERGY =      78.0707861239
                                      ------------------
             TOTAL POTENTIAL ENERGY =    -544.9829385263
               TOTAL KINETIC ENERGY =     544.9829385263
                 VIRIAL RATIO (V/T) =       1.0000000000

          ---------------------------------------
          MULLIKEN AND LOWDIN POPULATION ANALYSES
          ---------------------------------------

     ATOMIC MULLIKEN POPULATION IN EACH MOLECULAR ORBITAL

                      1          2          3          4          5

                  2.000000   2.000000   2.000000   2.000000   2.000000

    1             1.999997   0.000306   0.000269   1.999993   2.000010
    2             0.000001   0.999847   0.999865   0.000003  -0.000005
    3             0.000001   0.999847   0.999865   0.000003  -0.000005

                      6          7          8          9         10

                  2.000000   2.000000   2.000000   2.000000   2.000000

    1             1.999806   1.999969   1.982641   0.997786   1.051435
    2             0.000097   0.000016   0.008680   0.501107   0.474282
    3             0.000097   0.000016   0.008680   0.501107   0.474282

                     11         12         13         14         15

                  2.000000   2.000000   2.000000   2.000000   2.000000

    1             1.978619   0.930564   0.951417   0.473326   0.634798
    2             0.010690   0.534718   0.524291   0.763337   0.682601
    3             0.010690   0.534718   0.524291   0.763337   0.682601

                     16

                  2.000000

    1             0.312549
    2             0.843725
    3             0.843725

               ----- POPULATIONS IN EACH AO -----
                             MULLIKEN      LOWDIN
              1  S  1  S      2.00021     1.99696
              2  S  1  S      2.00244     1.96703
              3  S  1  S      1.43030     0.85964
              4  S  1  S      0.61755     0.47888
              5  S  1  X      2.00273     1.98515
              6  S  1  Y      2.00239     1.98615
              7  S  1  Z      2.00270     1.98517
              8  S  1  X      1.49533     1.35215
              9  S  1  Y      1.50736     1.38809
             10  S  1  Z      1.47494     1.35607
             11  S  1  X      0.54318     0.64620
             12  S  1  Y      0.43927     0.56290
             13  S  1  Z      0.53946     0.63990
             14  S  1 XX      0.16962     0.39753
             15  S  1 YY      0.20103     0.32438
             16  S  1 ZZ      0.31255     0.34982
             17  S  1 XY      0.54283     0.31042
             18  S  1 XZ      0.02961     0.59987
             19  S  1 YZ      0.00000     0.03048
             20  O  2  S      1.99746     1.97991
             21  O  2  S      0.61662     0.53473
             22  O  2  S      1.29585     0.71376
             23  O  2  X      0.32434     0.32393
             24  O  2  Y      0.34135     0.34618
             25  O  2  Z      0.32309     0.32124
             26  O  2  X      0.45697     0.47815
             27  O  2  Y      0.51078     0.51225
             28  O  2  Z      0.46619     0.51240
             29  O  2 XX      0.00225     0.22024
             30  O  2 YY      0.00207     0.21893
             31  O  2 ZZ      0.00115     0.22151
             32  O  2 XY      0.00400     0.00133
             33  O  2 XZ      0.00113     0.00582
             34  O  2 YZ      0.00000     0.00122
             35  O  3  S      1.99746     1.97991
             36  O  3  S      0.61662     0.53473
             37  O  3  S      1.29585     0.71376
             38  O  3  X      0.32434     0.32393
             39  O  3  Y      0.34135     0.34618
             40  O  3  Z      0.32309     0.32124
             41  O  3  X      0.45697     0.47815
             42  O  3  Y      0.51078     0.51225
             43  O  3  Z      0.46619     0.51240
             44  O  3 XX      0.00225     0.22024
             45  O  3 YY      0.00207     0.21893
             46  O  3 ZZ      0.00115     0.22151
             47  O  3 XY      0.00400     0.00133
             48  O  3 XZ      0.00113     0.00582
             49  O  3 YZ      0.00000     0.00122

          ----- MULLIKEN ATOMIC OVERLAP POPULATIONS -----
          (OFF-DIAGONAL ELEMENTS NEED TO BE MULTIPLIED BY 2)

             1           2           3

    1   19.2080920
    2    0.0526971   6.3203198
    3    0.0526971  -0.0297600   6.3203198

          TOTAL MULLIKEN AND LOWDIN ATOMIC POPULATIONS
       ATOM         MULL.POP.    CHARGE          LOW.POP.     CHARGE
    1 S            19.313486   -3.313486        19.216792   -3.216792
    2 O             6.343257    1.656743         6.391604    1.608396
    3 O             6.343257    1.656743         6.391604    1.608396

          MULLIKEN SPHERICAL HARMONIC POPULATIONS
       ATOM           S       P       D      F      G      H      I    TOTAL
    1 S             6.05   12.01    1.26   0.00   0.00   0.00   0.00   19.31
    2 O             3.91    2.42    0.01   0.00   0.00   0.00   0.00    6.34
    3 O             3.91    2.42    0.01   0.00   0.00   0.00   0.00    6.34

          -------------------------------
          BOND ORDER AND VALENCE ANALYSIS     BOND ORDER THRESHOLD=0.050
          -------------------------------

                   BOND                       BOND                       BOND
  ATOM PAIR DIST  ORDER      ATOM PAIR DIST  ORDER      ATOM PAIR DIST  ORDER
    1   2  2.000  1.331        1   3  2.000  1.331        2   3  3.277  1.613

                       TOTAL       BONDED        FREE
      ATOM            VALENCE     VALENCE     VALENCE
    1 S                 2.662       2.662       0.000
    2 O                 2.944       2.944       0.000
    3 O                 2.944       2.944       0.000

          ---------------------
          ELECTROSTATIC MOMENTS
          ---------------------

 POINT   1           X           Y           Z (BOHR)    CHARGE
                 0.000000    0.000000    0.000000        0.00 (A.U.)
         DX          DY          DZ         /D/  (DEBYE)
     0.000000    0.000000   23.756190   23.756190
 ...... END OF PROPERTY EVALUATION ......
 STEP CPU TIME =     0.01 TOTAL CPU TIME =        0.3 (    0.0 MIN)
 TOTAL WALL CLOCK TIME=        0.3 SECONDS, CPU UTILIZATION IS 100.00%
               580000  WORDS OF DYNAMIC MEMORY USED
 EXECUTION OF GAMESS TERMINATED NORMALLY Thu Feb 26 00:22:39 2015
 DDI: 263624 bytes (0.3 MB / 0 MWords) used by master data server.

 ----------------------------------------
 CPU timing information for all processes
 ========================================
 0: 0.284 + 0.35 = 0.320
 ----------------------------------------
 ddikick.x: exited gracefully.
----- accounting info -----
Files used on the master node dftfe.crc.nd.edu were:
-rw-r--r-- 1 pmehta1 campus   37475 Feb 26 00:22 /tmp/gamess.dat
-rw-r--r-- 1 pmehta1 campus     142 Feb 26 00:22 /tmp/gamess.F05
-rw-r--r-- 1 pmehta1 campus 1980264 Feb 26 00:22 /tmp/gamess.F08
-rw-r--r-- 1 pmehta1 campus 1220440 Feb 26 00:22 /tmp/gamess.F10
Thu Feb 26 00:22:42 EST 2015
0.244u 0.174s 0:03.76 10.9%	0+0k 0+96io 0pf+0w
