----- GAMESS execution script 'rungms' -----
This job is running on host dftfe.crc.nd.edu
under operating system Linux at Thu Feb 26 00:11:33 EST 2015
Available scratch disk space (Kbyte units) at beginning of the job is
Filesystem     1K-blocks     Used Available Use% Mounted on
/dev/sda2      147771864 22809316 117456116  17% /
GAMESS temporary binary files will be written to /tmp
GAMESS supplementary output files will be written to /tmp
Copying input file gamess.inp to your run's scratch directory...

 Distributed Data Interface kickoff program.
 Initiating 1 compute processes on 1 nodes to run the following command:
 /opt/crc/gamess/2012R1/gamess/gamess.00.x gamess 

          ******************************************************
          *         GAMESS VERSION =  1 MAY 2012 (R1)          *
          *             FROM IOWA STATE UNIVERSITY             *
          * M.W.SCHMIDT, K.K.BALDRIDGE, J.A.BOATZ, S.T.ELBERT, *
          *   M.S.GORDON, J.H.JENSEN, S.KOSEKI, N.MATSUNAGA,   *
          *          K.A.NGUYEN, S.J.SU, T.L.WINDUS,           *
          *       TOGETHER WITH M.DUPUIS, J.A.MONTGOMERY       *
          *         J.COMPUT.CHEM.  14, 1347-1363(1993)        *
          **************** 64 BIT LINUX VERSION ****************

  SINCE 1993, STUDENTS AND POSTDOCS WORKING AT IOWA STATE UNIVERSITY
  AND ALSO IN THEIR VARIOUS JOBS AFTER LEAVING ISU HAVE MADE IMPORTANT
  CONTRIBUTIONS TO THE CODE:
     IVANA ADAMOVIC, CHRISTINE AIKENS, YURI ALEXEEV, POOJA ARORA,
     ANDREY ASADCHEV, ROB BELL, PRADIPTA BANDYOPADHYAY, JONATHAN BENTZ,
     BRETT BODE, GALINA CHABAN, WEI CHEN, CHEOL HO CHOI, PAUL DAY,
     ALBERT DEFUSCO, TIM DUDLEY, DMITRI FEDOROV, GRAHAM FLETCHER,
     MARK FREITAG, KURT GLAESEMANN, DAN KEMP, GRANT MERRILL,
     NORIYUKI MINEZAWA, JONATHAN MULLIN, TAKESHI NAGATA,
     SEAN NEDD, HEATHER NETZLOFF, BOSILJKA NJEGIC, RYAN OLSON, MIKE PAK,
     JIM SHOEMAKER, LYUDMILA SLIPCHENKO, SAROM SOK, JIE SONG,
     TETSUYA TAKETSUGU, SIMON WEBB, SOOHAENG YOO, FEDERICO ZAHARIEV

  ADDITIONAL CODE HAS BEEN PROVIDED BY COLLABORATORS IN OTHER GROUPS:
     IOWA STATE UNIVERSITY:
          JOE IVANIC, LAIMUTIS BYTAUTAS, KLAUS RUEDENBERG
     UNIVERSITY OF TOKYO: KIMIHIKO HIRAO, TAKAHITO NAKAJIMA,
          TAKAO TSUNEDA, MUNEAKI KAMIYA, SUSUMU YANAGISAWA,
          KIYOSHI YAGI, MAHITO CHIBA, SEIKEN TOKURA, NAOAKI KAWAKAMI
     UNIVERSITY OF AARHUS: FRANK JENSEN
     UNIVERSITY OF IOWA: VISVALDAS KAIRYS, HUI LI
     NATIONAL INST. OF STANDARDS AND TECHNOLOGY: WALT STEVENS, DAVID GARMER
     UNIVERSITY OF PISA: BENEDETTA MENNUCCI, JACOPO TOMASI
     UNIVERSITY OF MEMPHIS: HENRY KURTZ, PRAKASHAN KORAMBATH
     UNIVERSITY OF ALBERTA: TOBY ZENG, MARIUSZ KLOBUKOWSKI
     UNIVERSITY OF NEW ENGLAND: MARK SPACKMAN
     MIE UNIVERSITY: HIROAKI UMEDA
     MICHIGAN STATE UNIVERSITY:
          KAROL KOWALSKI, MARTA WLOCH, JEFFREY GOUR, JESSE LUTZ, PIOTR PIECUCH
     UNIVERSITY OF SILESIA: MONIKA MUSIAL, STANISLAW KUCHARSKI
     FACULTES UNIVERSITAIRES NOTRE-DAME DE LA PAIX:
          OLIVIER QUINET, BENOIT CHAMPAGNE
     UNIVERSITY OF CALIFORNIA - SANTA BARBARA: BERNARD KIRTMAN
     INSTITUTE FOR MOLECULAR SCIENCE:
          KAZUYA ISHIMURA, MICHIO KATOUDA, AND SHIGERU NAGASE
     UNIVERSITY OF NOTRE DAME: DAN CHIPMAN
     KYUSHU UNIVERSITY:
          HARUYUKI NAKANO,
          FENG LONG GU, JACEK KORCHOWIEC, MARCIN MAKOWSKI, AND YURIKO AOKI,
          HIROTOSHI MORI AND EISAKU MIYOSHI
     PENNSYLVANIA STATE UNIVERSITY:
          TZVETELIN IORDANOV, CHET SWALINA, JONATHAN SKONE,
          SHARON HAMMES-SCHIFFER
     WASEDA UNIVERSITY:
          MASATO KOBAYASHI, TOMOKO AKAMA, TSUGUKI TOUMA,
          TAKESHI YOSHIKAWA, YASUHIRO IKABATA, HIROMI NAKAI
     UNIVERSITY OF NEBRASKA:
          PEIFENG SU, DEJUN SI, NANDUN THELLAMUREGE, YALI WANG, HUI LI
     UNIVERSITY OF ZURICH:
          ROBERTO PEVERATI, KIM BALDRIDGE
     N. COPERNICUS UNIVERSITY AND JACKSON STATE UNIVERSITY:
          MARIA BARYSZ

 EXECUTION OF GAMESS BEGUN Thu Feb 26 00:11:34 2015

            ECHO OF THE FIRST FEW INPUT CARDS -
 INPUT CARD> $BASIS GBASIS=PC1 $END                                                         
 INPUT CARD> $CONTRL COORD=ZMT ISPHER=1 RUNTYP=ENERGY DFTTYP=PBE $END                       
 INPUT CARD>                                                                                
 INPUT CARD> $DATA                                                                          
 INPUT CARD>Title                                                                           
 INPUT CARD>Cnv 2                                                                           
 INPUT CARD>                                                                                
 INPUT CARD>S                                                                               
 INPUT CARD>O 1 1.10                                                                        
 INPUT CARD>O 1 1.10 2 120.0                                                                
 INPUT CARD> $END                                                                           
    1000000 WORDS OF MEMORY AVAILABLE

     BASIS OPTIONS
     -------------
     GBASIS=PC1          IGAUSS=       0      POLAR=NONE    
     NDFUNC=       0     NFFUNC=       0     DIFFSP=       F
     NPFUNC=       0      DIFFS=       F     BASNAM=        


     RUN TITLE
     ---------
 Title                                                                           

 THE POINT GROUP OF THE MOLECULE IS CNV     
 THE ORDER OF THE PRINCIPAL AXIS IS     2

 YOUR FULLY SUBSTITUTED Z-MATRIX IS
 S   
 O      1   1.1000000
 O      1   1.1000000  2  120.0000

 THE MOMENTS OF INERTIA ARE (AMU-ANGSTROM**2)
 IXX=     4.837   IYY=    29.031   IZZ=    33.868

 ATOM      ATOMIC                      COORDINATES (BOHR)
           CHARGE         X                   Y                   Z
 S          16.0     0.0000000000        0.0000000000       -0.5198188610
 O           8.0    -1.8002057827        0.0000000000        0.5195304322
 O           8.0     1.8002057827        0.0000000000        0.5195304322

          INTERNUCLEAR DISTANCES (ANGS.)
          ------------------------------

                1 S          2 O          3 O     

   1 S       0.0000000    1.1000000 *  1.1000000 *
   2 O       1.1000000 *  0.0000000    1.9052559 *
   3 O       1.1000000 *  1.9052559 *  0.0000000  

  * ... LESS THAN  3.000


     ATOMIC BASIS SET
     ----------------
 THE CONTRACTED PRIMITIVE FUNCTIONS HAVE BEEN UNNORMALIZED
 THE CONTRACTED BASIS FUNCTIONS ARE NOW NORMALIZED TO UNITY

  SHELL TYPE  PRIMITIVE        EXPONENT          CONTRACTION COEFFICIENT(S)

 S         

      1   S       1         55510.0000000    0.000587229760
      1   S       2          8326.7000000    0.004532413947
      1   S       3          1895.6000000    0.023265261648
      1   S       4           536.7700000    0.089696133027
      1   S       5           174.6700000    0.254098332277
      1   S       6            62.5780000    0.438665087637
      1   S       7            23.5730000    0.314547135094
      1   S       8             5.8908000    0.032727897102

      2   S       9          8326.7000000   -0.000019755715
      2   S      10          1895.6000000   -0.000043822381
      2   S      11           536.7700000   -0.001730264906
      2   S      12           174.6700000   -0.009381263460
      2   S      13            62.5780000   -0.064050766303
      2   S      14            23.5730000   -0.082478179196
      2   S      15             5.8908000    0.478342956889
      2   S      16             2.1852000    0.626896670208

      3   S      17          1895.6000000    0.000016227260
      3   S      18           536.7700000    0.000191135619
      3   S      19           174.6700000    0.001952069674
      3   S      20            62.5780000    0.010578701087
      3   S      21            23.5730000    0.022164934551
      3   S      22             5.8908000   -0.184968323118
      3   S      23             2.1852000   -0.480920750976
      3   S      24             0.4528200    1.243822243872

      4   S      25             0.1620200    1.000000000000

      5   P      26           395.4500000    0.004642761329
      5   P      27            92.8340000    0.036023396489
      5   P      28            29.2660000    0.149058869978
      5   P      29            10.5950000    0.360033266263
      5   P      30             4.0272000    0.455756476221
      5   P      31             1.5484000    0.206167664178

      6   P      32            92.8340000    0.000169901442
      6   P      33            29.2660000   -0.002541839934
      6   P      34            10.5950000   -0.007867614595
      6   P      35             4.0272000   -0.037231009184
      6   P      36             1.5484000    0.161417246830
      6   P      37             0.4613400    0.902230419976

      7   P      38             0.1313100    1.000000000000

      8   D      39             0.5500000    1.000000000000

 O         

     15   S      40          2306.7000000    0.005424388755
     15   S      41           347.1500000    0.040474749465
     15   S      42            78.8900000    0.180219634554
     15   S      43            21.8760000    0.462370311787
     15   S      44             6.6646000    0.454888396263

     16   S      45           347.1500000   -0.000655003786
     16   S      46            78.8900000   -0.005362052952
     16   S      47            21.8760000   -0.074902158894
     16   S      48             6.6646000   -0.181442579655
     16   S      49             1.0669000    1.102006874042

     17   S      50             0.3070000    1.000000000000

     18   P      51            17.0220000    0.068979967443
     18   P      52             3.6838000    0.351985516325
     18   P      53             0.9923400    0.724036547822

     19   P      54             0.2448700    1.000000000000

     20   D      55             1.0000000    1.000000000000

 TOTAL NUMBER OF BASIS SET SHELLS             =   20
 NUMBER OF CARTESIAN GAUSSIAN BASIS FUNCTIONS =   49
 NOTE: THIS RUN WILL RESTRICT THE MO VARIATION SPACE TO SPHERICAL HARMONICS.
 THE NUMBER OF ORBITALS KEPT IN THE VARIATIONAL SPACE WILL BE PRINTED LATER.
 NUMBER OF ELECTRONS                          =   32
 CHARGE OF MOLECULE                           =    0
 SPIN MULTIPLICITY                            =    1
 NUMBER OF OCCUPIED ORBITALS (ALPHA)          =   16
 NUMBER OF OCCUPIED ORBITALS (BETA )          =   16
 TOTAL NUMBER OF ATOMS                        =    3
 THE NUCLEAR REPULSION ENERGY IS      140.9297235932

     LEBEDEV GRID-BASED DFT OPTIONS
     ------------------------------
     DFTTYP=PBE     
     NRAD  =      96     NLEB  =     302
     NRAD0 =      24     NLEB0 =     110
     SWOFF =    5.00E-03 (PURE SCF -> DFT)
     SWITCH=    3.00E-04 (COARSE -> TIGHT GRID)
     THRESH=    0.00E+00 GTHRE=    1.00E+00

 GRIMME'S EMPIRICAL DISPERSION CORRECTION= F

     $CONTRL OPTIONS
     ---------------
 SCFTYP=RHF          RUNTYP=ENERGY       EXETYP=RUN     
 MPLEVL=       0     CITYP =NONE         CCTYP =NONE         VBTYP =NONE    
 DFTTYP=PBE          TDDFT =NONE    
 MULT  =       1     ICHARG=       0     NZVAR =       0     COORD =ZMT     
 PP    =NONE         RELWFN=NONE         LOCAL =NONE         NUMGRD=       F
 ISPHER=       1     NOSYM =       0     MAXIT =      30     UNITS =ANGS    
 PLTORB=       F     MOLPLT=       F     AIMPAC=       F     FRIEND=        
 NPRINT=       7     IREST =       0     GEOM  =INPUT   
 NORMF =       0     NORMP =       0     ITOL  =      20     ICUT  =       9
 INTTYP=BEST         GRDTYP=BEST         QMTTOL= 1.0E-06

     $SYSTEM OPTIONS
     ---------------
  REPLICATED MEMORY=     1000000 WORDS (ON EVERY NODE).
 DISTRIBUTED MEMDDI=           0 MILLION WORDS IN AGGREGATE,
 MEMDDI DISTRIBUTED OVER   1 PROCESSORS IS           0 WORDS/PROCESSOR.
 TOTAL MEMORY REQUESTED ON EACH PROCESSOR=     1000000 WORDS.
 TIMLIM=      525600.00 MINUTES, OR     365.0 DAYS.
 PARALL= F  BALTYP=  DLB     KDIAG=    0  COREFL= F
 MXSEQ2=     300 MXSEQ3=     150

          ----------------
          PROPERTIES INPUT
          ----------------

     MOMENTS            FIELD           POTENTIAL          DENSITY
 IEMOM =       1   IEFLD =       0   IEPOT =       0   IEDEN =       0
 WHERE =COMASS     WHERE =NUCLEI     WHERE =NUCLEI     WHERE =NUCLEI  
 OUTPUT=BOTH       OUTPUT=BOTH       OUTPUT=BOTH       OUTPUT=BOTH    
 IEMINT=       0   IEFINT=       0                     IEDINT=       0
                                                       MORB  =       0
          EXTRAPOLATION IN EFFECT
          DIIS IN EFFECT
 ORBITAL PRINTING OPTION: NPREO=     1    49     2     1

     -------------------------------
     INTEGRAL TRANSFORMATION OPTIONS
     -------------------------------
     NWORD  =            0
     CUTOFF = 1.0E-09     MPTRAN =       0
     DIRTRF =       F     AOINTS =DUP     

          ----------------------
          INTEGRAL INPUT OPTIONS
          ----------------------
 NOPK  =       1 NORDER=       0 SCHWRZ=       F

   --- ENCODED Z MATRIX ---
 COORD  TYPE   I   J   K   L   M   N
    1      1    3   1
    2      1    2   1
    3      2    2   1   3

 THE DETERMINANT OF THE G MATRIX IS 10**(    -4)

 THE DETERMINANT OF THE G MATRIX IS 10**(    -4)
 * * * WARNING * * *
 YOUR B MATRIX HAS A SMALL DETERMINANT.
 THIS SUGGESTS YOU MAY HAVE BADLY CHOSEN COORDINATES.

     ------------------------------------------
     THE POINT GROUP IS CNV, NAXIS= 2, ORDER= 4
     ------------------------------------------

 -- VARIATIONAL SPACE WILL BE RESTRICTED TO PURE SPHERICAL HARMONICS ONLY --
 AFTER EXCLUDING CONTAMINANT COMBINATIONS FROM THE CARTESIAN GAUSSIAN BASIS
 SET, THE NUMBER OF SPHERICAL HARMONICS KEPT IN THE VARIATION SPACE IS   46

     DIMENSIONS OF THE SYMMETRY SUBSPACES ARE
 A1  =   19     A2  =    5     B1  =   14     B2  =    8

 ..... DONE SETTING UP THE RUN .....
 STEP CPU TIME =     0.00 TOTAL CPU TIME =        0.0 (    0.0 MIN)
 TOTAL WALL CLOCK TIME=        0.0 SECONDS, CPU UTILIZATION IS   0.00%

          ********************
          1 ELECTRON INTEGRALS
          ********************
 ...... END OF ONE-ELECTRON INTEGRALS ......
 STEP CPU TIME =     0.00 TOTAL CPU TIME =        0.0 (    0.0 MIN)
 TOTAL WALL CLOCK TIME=        0.0 SECONDS, CPU UTILIZATION IS   0.00%

          -------------
          GUESS OPTIONS
          -------------
          GUESS =HUCKEL            NORB  =       0          NORDER=       0
          MIX   =       F          PRTMO =       F          PUNMO =       F
          TOLZ  = 1.0E-08          TOLE  = 1.0E-05
          SYMDEN=       F          PURIFY=       F

 INITIAL GUESS ORBITALS GENERATED BY HUCKEL   ROUTINE.
 HUCKEL GUESS REQUIRES     21583 WORDS.

 STATISTICS FOR GENERATION OF SYMMETRY ORBITAL -Q- MATRIX
 NUMBER OF CARTESIAN ATOMIC ORBITALS=         49
 NUMBER OF SPHERICAL CONTAMINANTS DROPPED=     3
 NUMBER OF LINEARLY DEPENDENT MOS DROPPED=     0
 TOTAL NUMBER OF MOS IN VARIATION SPACE=      46

 SYMMETRIES FOR INITIAL GUESS ORBITALS FOLLOW.   BOTH SET(S).
    16 ORBITALS ARE OCCUPIED (    7 CORE ORBITALS).
     8=?A1      9=?B1     10=B2      11=?A1     12=A1      13=B1      14=A2  
    15=B1      16=A1      17=B2      18=B1      19=A1      20=A1      21=A1  
    22=A1      23=A1      24=A1      25=A1      26=A1  
 ...... END OF INITIAL ORBITAL SELECTION ......
 STEP CPU TIME =     0.02 TOTAL CPU TIME =        0.0 (    0.0 MIN)
 TOTAL WALL CLOCK TIME=        0.0 SECONDS, CPU UTILIZATION IS 100.00%

                    ----------------------
                    AO INTEGRAL TECHNOLOGY
                    ----------------------
     S,P,L SHELL ROTATED AXIS INTEGRALS, REPROGRAMMED BY
        KAZUYA ISHIMURA (IMS) AND JOSE SIERRA (SYNSTAR).
     S,P,D,L SHELL ROTATED AXIS INTEGRALS PROGRAMMED BY
        KAZUYA ISHIMURA (INSTITUTE FOR MOLECULAR SCIENCE).
     S,P,D,F,G SHELL TO TOTAL QUARTET ANGULAR MOMENTUM SUM 5,
        ERIC PROGRAM BY GRAHAM FLETCHER (ELORET AND NASA ADVANCED
        SUPERCOMPUTING DIVISION, AMES RESEARCH CENTER).
     S,P,D,F,G,L SHELL GENERAL RYS QUADRATURE PROGRAMMED BY
        MICHEL DUPUIS (PACIFIC NORTHWEST NATIONAL LABORATORY).

          --------------------
          2 ELECTRON INTEGRALS
          --------------------

 THE -PK- OPTION IS OFF, THE INTEGRALS ARE NOT IN SUPERMATRIX FORM.
 STORING   15000 INTEGRALS/RECORD ON DISK, USING 12 BYTES/INTEGRAL.
 TWO ELECTRON INTEGRAL EVALUATION REQUIRES   90606 WORDS OF MEMORY.
 II,JST,KST,LST =  1  1  1  1 NREC =         1 INTLOC =    1
 II,JST,KST,LST =  2  1  1  1 NREC =         1 INTLOC =    2
 II,JST,KST,LST =  3  1  1  1 NREC =         1 INTLOC =    7
 II,JST,KST,LST =  4  1  1  1 NREC =         1 INTLOC =   22
 II,JST,KST,LST =  5  1  1  1 NREC =         1 INTLOC =   56
 II,JST,KST,LST =  6  1  1  1 NREC =         1 INTLOC =  125
 II,JST,KST,LST =  7  1  1  1 NREC =         1 INTLOC =  329
 II,JST,KST,LST =  8  1  1  1 NREC =         1 INTLOC =  776
 II,JST,KST,LST =  9  1  1  1 NREC =         1 INTLOC = 2864
 II,JST,KST,LST = 10  1  1  1 NREC =         1 INTLOC = 2864
 II,JST,KST,LST = 11  1  1  1 NREC =         1 INTLOC = 2864
 II,JST,KST,LST = 12  1  1  1 NREC =         1 INTLOC = 2864
 II,JST,KST,LST = 13  1  1  1 NREC =         1 INTLOC = 2864
 II,JST,KST,LST = 14  1  1  1 NREC =         1 INTLOC = 2864
 II,JST,KST,LST = 15  1  1  1 NREC =         1 INTLOC = 2864
 II,JST,KST,LST = 16  1  1  1 NREC =         1 INTLOC = 5257
 II,JST,KST,LST = 17  1  1  1 NREC =         1 INTLOC = 8648
 II,JST,KST,LST = 18  1  1  1 NREC =         1 INTLOC =13156
 II,JST,KST,LST = 19  1  1  1 NREC =         3 INTLOC = 1867
 II,JST,KST,LST = 20  1  1  1 NREC =         5 INTLOC = 3515
 TOTAL NUMBER OF NONZERO TWO-ELECTRON INTEGRALS =              184211
         13 INTEGRAL RECORDS WERE STORED ON DISK FILE  8.
  ...... END OF TWO-ELECTRON INTEGRALS .....
 STEP CPU TIME =     0.16 TOTAL CPU TIME =        0.2 (    0.0 MIN)
 TOTAL WALL CLOCK TIME=        0.2 SECONDS, CPU UTILIZATION IS  94.74%

          --------------------------
               R-PBE SCF CALCULATION
          --------------------------

     NUCLEAR ENERGY =       140.9297235932
     MAXIT =   30     NPUNCH=    2
     EXTRAP=T  DAMP=F  SHIFT=F  RSTRCT=F  DIIS=T  DEM=F  SOSCF=F
         DENSITY MATRIX CONVERGENCE THRESHOLD=  1.00E-05
     COARSE -> FINE DFT GRID SWITCH THRESHOLD=  3.00E-04 (SWITCH IN $DFT)
                   HF -> DFT SWITCH THRESHOLD=  5.00E-03 (SWOFF IN $DFT)
     MEMORY REQUIRED FOR RHF ITERS=    183108 WORDS.

 DFT CODE IS SWITCHING FROM THE FINE GRID NRAD= 96,  NLEB=  302
                      TO THE COARSE GRID NRAD0= 24, NLEB0=  110

     EXCHANGE FUNCTIONAL   =PBE       
     CORRELATION FUNCTIONAL=PBE       
     DFT THRESHOLD         =.460E-07
     GRID CHANGE THRESHOLD =.300E-03
 FOR AN EULER-MACLAURIN QUADRATURE USING  96 RADIAL POINTS:
 SMALLEST GAUSSIAN PRIMITIVE EXPONENT=        0.1313100000 OF TYPE -P-
 ON ATOM NUMBER   1 HAS RADIAL NORMALIZATION=  1.000000
  LARGEST GAUSSIAN PRIMITIVE EXPONENT=    55510.0000000000 OF TYPE -S-
 ON ATOM NUMBER   1 HAS RADIAL NORMALIZATION=  0.999999
 DFT IS SWITCHED OFF, PERFORMING PURE SCF UNTIL SWOFF THRESHOLD IS REACHED.

 ITER EX DEM     TOTAL ENERGY        E CHANGE  DENSITY CHANGE    DIIS ERROR
   1  0  0     -545.0785739179  -545.0785739179   0.480512084   1.026831857
          * * *   INITIATING DIIS PROCEDURE   * * *
   2  1  0     -546.3841669395    -1.3055930216   0.705376758   0.156093741
   3  2  0     -546.4592513563    -0.0750844168   0.039993937   0.052137283
   4  3  0     -546.4678550623    -0.0086037059   0.083413120   0.013912089
   5  4  0     -546.4687904308    -0.0009353685   0.031967612   0.006323143
   6  5  0     -546.4688901472    -0.0000997165   0.007906786   0.001298151
   7  6  0     -546.4688980547    -0.0000079074   0.000107250   0.000102257
 CONVERGED TO SWOFF, SO DFT CALCULATION IS NOW SWITCHED ON.
 DFT CODE IS SWITCHING BACK TO THE FINE GRID
          * * *   INITIATING DIIS PROCEDURE   * * *
   8  7  0     -547.4894129617    -1.0205149071   0.126985892   0.088990450
   9  8  0     -547.5048146385    -0.0154016767   0.077588255   0.029566539
  10  9  0     -547.5047230528     0.0000915857   0.028747737   0.027819359
  11 10  0     -547.5068803866    -0.0021573338   0.007841159   0.004305201
  12 11  0     -547.5069166114    -0.0000362249   0.001364924   0.000426542
  13 12  0     -547.5069169213    -0.0000003099   0.000189970   0.000022171
  14 13  0     -547.5069169236    -0.0000000022   0.000024328   0.000005650
  15 14  0     -547.5069169237    -0.0000000001   0.000001691   0.000000580
  16 15  0     -547.5069169237     0.0000000000   0.000000260   0.000000053

          -----------------
          DENSITY CONVERGED
          -----------------
     TIME TO FORM FOCK OPERATORS=       4.7 SECONDS (       0.3 SEC/ITER)
     TIME TO SOLVE SCF EQUATIONS=       0.0 SECONDS (       0.0 SEC/ITER)

 FINAL R-PBE ENERGY IS     -547.5069169237 AFTER  16 ITERATIONS
 DFT EXCHANGE + CORRELATION ENERGY =       -43.3944730034
 TOTAL ELECTRON NUMBER             =        32.0000003590

          ------------
          EIGENVECTORS
          ------------

                      1          2          3          4          5
                  -88.1025   -18.7316   -18.7315    -7.7963    -5.8203
                     A1         B1         A1         A1         B1  
    1  S  1  S    1.002974   0.000000  -0.000109  -0.273531   0.000000
    2  S  1  S   -0.010079   0.000000  -0.000131   1.038230   0.000000
    3  S  1  S    0.002143   0.000000  -0.002309   0.044679   0.000000
    4  S  1  S   -0.000277   0.000000   0.011498  -0.006856   0.000000
    5  S  1  X    0.000000  -0.000385   0.000000   0.000000   0.992173
    6  S  1  Y    0.000000   0.000000   0.000000   0.000000   0.000000
    7  S  1  Z    0.000039   0.000000  -0.000041   0.017645   0.000000
    8  S  1  X    0.000000   0.004365   0.000000   0.000000   0.015194
    9  S  1  Y    0.000000   0.000000   0.000000   0.000000   0.000000
   10  S  1  Z    0.000279   0.000000  -0.000846   0.003558   0.000000
   11  S  1  X    0.000000  -0.004945   0.000000   0.000000   0.000032
   12  S  1  Y    0.000000   0.000000   0.000000   0.000000   0.000000
   13  S  1  Z    0.000036   0.000000   0.004649   0.000110   0.000000
   14  S  1 XX    0.000270   0.000000  -0.002253   0.002642   0.000000
   15  S  1 YY   -0.000173   0.000000   0.001294  -0.001620   0.000000
   16  S  1 ZZ   -0.000097   0.000000   0.000959  -0.001021   0.000000
   17  S  1 XY    0.000000   0.000000   0.000000   0.000000   0.000000
   18  S  1 XZ    0.000000   0.004121   0.000000   0.000000   0.004242
   19  S  1 YZ    0.000000   0.000000   0.000000   0.000000   0.000000
   20  O  2  S   -0.000008   0.703189   0.703115  -0.002359   0.004341
   21  O  2  S   -0.000085   0.028515   0.027644   0.001343  -0.003961
   22  O  2  S   -0.000462  -0.011363  -0.013975  -0.003545   0.001688
   23  O  2  X   -0.000135   0.002991   0.002225   0.002575  -0.005504
   24  O  2  Y    0.000000   0.000000   0.000000   0.000000   0.000000
   25  O  2  Z    0.000096  -0.001577  -0.001293  -0.001326   0.004134
   26  O  2  X   -0.000269  -0.001036  -0.002660  -0.002648   0.001003
   27  O  2  Y    0.000000   0.000000   0.000000   0.000000   0.000000
   28  O  2  Z    0.000213   0.001561   0.000255   0.001981  -0.000357
   29  O  2 XX    0.000016   0.000462   0.000344   0.001861  -0.001810
   30  O  2 YY    0.000017  -0.000022  -0.000560  -0.001283   0.002045
   31  O  2 ZZ   -0.000033  -0.000439   0.000216  -0.000579  -0.000236
   32  O  2 XY    0.000000   0.000000   0.000000   0.000000   0.000000
   33  O  2 XZ    0.000027  -0.000611  -0.000473  -0.001990   0.003140
   34  O  2 YZ    0.000000   0.000000   0.000000   0.000000   0.000000
   35  O  3  S   -0.000008  -0.703189   0.703115  -0.002359  -0.004341
   36  O  3  S   -0.000085  -0.028515   0.027644   0.001343   0.003961
   37  O  3  S   -0.000462   0.011363  -0.013975  -0.003545  -0.001688
   38  O  3  X    0.000135   0.002991  -0.002225  -0.002575  -0.005504
   39  O  3  Y    0.000000   0.000000   0.000000   0.000000   0.000000
   40  O  3  Z    0.000096   0.001577  -0.001293  -0.001326  -0.004134
   41  O  3  X    0.000269  -0.001036   0.002660   0.002648   0.001003
   42  O  3  Y    0.000000   0.000000   0.000000   0.000000   0.000000
   43  O  3  Z    0.000213  -0.001561   0.000255   0.001981   0.000357
   44  O  3 XX    0.000016  -0.000462   0.000344   0.001861   0.001810
   45  O  3 YY    0.000017   0.000022  -0.000560  -0.001283  -0.002045
   46  O  3 ZZ   -0.000033   0.000439   0.000216  -0.000579   0.000236
   47  O  3 XY    0.000000   0.000000   0.000000   0.000000   0.000000
   48  O  3 XZ   -0.000027  -0.000611   0.000473   0.001990   0.003140
   49  O  3 YZ    0.000000   0.000000   0.000000   0.000000   0.000000

                      6          7          8          9         10
                   -5.8037    -5.8004    -1.2453    -1.0883    -0.5703
                     B2         A1         A1         B1         B2  
    1  S  1  S    0.000000   0.005738   0.065190   0.000000   0.000000
    2  S  1  S    0.000000  -0.021879  -0.220693   0.000000   0.000000
    3  S  1  S    0.000000   0.001149   0.308676   0.000000   0.000000
    4  S  1  S    0.000000   0.001362   0.066056   0.000000   0.000000
    5  S  1  X    0.000000   0.000000   0.000000  -0.235989   0.000000
    6  S  1  Y    0.995722   0.000000   0.000000   0.000000  -0.213466
    7  S  1  Z    0.000000   0.994597  -0.112971   0.000000   0.000000
    8  S  1  X    0.000000   0.000000   0.000000   0.348062   0.000000
    9  S  1  Y    0.012053   0.000000   0.000000   0.000000   0.451664
   10  S  1  Z    0.000000   0.012487   0.148970   0.000000   0.000000
   11  S  1  X    0.000000   0.000000   0.000000   0.011117   0.000000
   12  S  1  Y   -0.000841   0.000000   0.000000   0.000000   0.117331
   13  S  1  Z    0.000000  -0.000162  -0.012223   0.000000   0.000000
   14  S  1 XX    0.000000  -0.000674   0.051150   0.000000   0.000000
   15  S  1 YY    0.000000  -0.001361  -0.042904   0.000000   0.000000
   16  S  1 ZZ    0.000000   0.002035  -0.008246   0.000000   0.000000
   17  S  1 XY    0.000000   0.000000   0.000000   0.000000   0.000000
   18  S  1 XZ    0.000000   0.000000   0.000000   0.108935   0.000000
   19  S  1 YZ    0.001562   0.000000   0.000000   0.000000   0.081096
   20  O  2  S    0.000000  -0.002346  -0.130865   0.154250   0.000000
   21  O  2  S    0.000000   0.003034   0.237781  -0.272346   0.000000
   22  O  2  S    0.000000  -0.001023   0.206616  -0.248541   0.000000
   23  O  2  X    0.000000   0.004110   0.156805  -0.134996   0.000000
   24  O  2  Y    0.001180   0.000000   0.000000   0.000000   0.340806
   25  O  2  Z    0.000000  -0.001304  -0.071282   0.099087   0.000000
   26  O  2  X    0.000000  -0.000949   0.030900  -0.014870   0.000000
   27  O  2  Y   -0.000479   0.000000   0.000000   0.000000   0.160628
   28  O  2  Z    0.000000  -0.000284  -0.010158   0.016199   0.000000
   29  O  2 XX    0.000000   0.001651   0.019274  -0.015460   0.000000
   30  O  2 YY    0.000000  -0.000840  -0.011762   0.015388   0.000000
   31  O  2 ZZ    0.000000  -0.000811  -0.007512   0.000072   0.000000
   32  O  2 XY    0.000737   0.000000   0.000000   0.000000   0.029342
   33  O  2 XZ    0.000000  -0.001224  -0.019854   0.024902   0.000000
   34  O  2 YZ   -0.000580   0.000000   0.000000   0.000000  -0.016504
   35  O  3  S    0.000000  -0.002346  -0.130865  -0.154250   0.000000
   36  O  3  S    0.000000   0.003034   0.237781   0.272346   0.000000
   37  O  3  S    0.000000  -0.001023   0.206616   0.248541   0.000000
   38  O  3  X    0.000000  -0.004110  -0.156805  -0.134996   0.000000
   39  O  3  Y    0.001180   0.000000   0.000000   0.000000   0.340806
   40  O  3  Z    0.000000  -0.001304  -0.071282  -0.099087   0.000000
   41  O  3  X    0.000000   0.000949  -0.030900  -0.014870   0.000000
   42  O  3  Y   -0.000479   0.000000   0.000000   0.000000   0.160628
   43  O  3  Z    0.000000  -0.000284  -0.010158  -0.016199   0.000000
   44  O  3 XX    0.000000   0.001651   0.019274   0.015460   0.000000
   45  O  3 YY    0.000000  -0.000840  -0.011762  -0.015388   0.000000
   46  O  3 ZZ    0.000000  -0.000811  -0.007512  -0.000072   0.000000
   47  O  3 XY   -0.000737   0.000000   0.000000   0.000000  -0.029342
   48  O  3 XZ    0.000000   0.001224   0.019854   0.024902   0.000000
   49  O  3 YZ   -0.000580   0.000000   0.000000   0.000000  -0.016504

                     11         12         13         14         15
                   -0.5605    -0.4784    -0.4333    -0.4012    -0.3480
                     A1         A1         B1         A2         B1  
    1  S  1  S   -0.030120   0.041233   0.000000   0.000000   0.000000
    2  S  1  S    0.091919  -0.110305   0.000000   0.000000   0.000000
    3  S  1  S   -0.178714   0.261085   0.000000   0.000000   0.000000
    4  S  1  S   -0.204498   0.014064   0.000000   0.000000   0.000000
    5  S  1  X    0.000000   0.000000  -0.165768   0.000000   0.017605
    6  S  1  Y    0.000000   0.000000   0.000000   0.000000   0.000000
    7  S  1  Z   -0.178376  -0.056496   0.000000   0.000000   0.000000
    8  S  1  X    0.000000   0.000000   0.308023   0.000000  -0.003001
    9  S  1  Y    0.000000   0.000000   0.000000   0.000000   0.000000
   10  S  1  Z    0.378759   0.097765   0.000000   0.000000   0.000000
   11  S  1  X    0.000000   0.000000  -0.029696   0.000000   0.095367
   12  S  1  Y    0.000000   0.000000   0.000000   0.000000   0.000000
   13  S  1  Z    0.108243  -0.053845   0.000000   0.000000   0.000000
   14  S  1 XX   -0.110120  -0.051031   0.000000   0.000000   0.000000
   15  S  1 YY   -0.012386   0.011721   0.000000   0.000000   0.000000
   16  S  1 ZZ    0.122507   0.039310   0.000000   0.000000   0.000000
   17  S  1 XY    0.000000   0.000000   0.000000  -0.195157   0.000000
   18  S  1 XZ    0.000000   0.000000   0.004009   0.000000  -0.173631
   19  S  1 YZ    0.000000   0.000000   0.000000   0.000000   0.000000
   20  O  2  S   -0.016537   0.091724  -0.064802   0.000000  -0.004819
   21  O  2  S    0.036987  -0.184952   0.134716   0.000000  -0.006954
   22  O  2  S    0.064307  -0.326447   0.281822   0.000000   0.000327
   23  O  2  X    0.127597   0.346001  -0.250289   0.000000   0.399810
   24  O  2  Y    0.000000   0.000000   0.000000   0.462304   0.000000
   25  O  2  Z    0.300711  -0.074638   0.334201   0.000000   0.278812
   26  O  2  X    0.058470   0.186562  -0.114159   0.000000   0.232216
   27  O  2  Y    0.000000   0.000000   0.000000   0.282402   0.000000
   28  O  2  Z    0.134791  -0.037762   0.183086   0.000000   0.190405
   29  O  2 XX    0.015150   0.020029  -0.006302   0.000000   0.040815
   30  O  2 YY    0.001079  -0.012409   0.015672   0.000000  -0.010900
   31  O  2 ZZ   -0.016228  -0.007620  -0.009370   0.000000  -0.029915
   32  O  2 XY    0.000000   0.000000   0.000000   0.028260   0.000000
   33  O  2 XZ    0.016220  -0.012738   0.028527   0.000000  -0.000686
   34  O  2 YZ    0.000000   0.000000   0.000000  -0.014986   0.000000
   35  O  3  S   -0.016537   0.091724   0.064802   0.000000   0.004819
   36  O  3  S    0.036987  -0.184952  -0.134716   0.000000   0.006954
   37  O  3  S    0.064307  -0.326447  -0.281822   0.000000  -0.000327
   38  O  3  X   -0.127597  -0.346001  -0.250289   0.000000   0.399810
   39  O  3  Y    0.000000   0.000000   0.000000  -0.462304   0.000000
   40  O  3  Z    0.300711  -0.074638  -0.334201   0.000000  -0.278812
   41  O  3  X   -0.058470  -0.186562  -0.114159   0.000000   0.232216
   42  O  3  Y    0.000000   0.000000   0.000000  -0.282402   0.000000
   43  O  3  Z    0.134791  -0.037762  -0.183086   0.000000  -0.190405
   44  O  3 XX    0.015150   0.020029   0.006302   0.000000  -0.040815
   45  O  3 YY    0.001079  -0.012409  -0.015672   0.000000   0.010900
   46  O  3 ZZ   -0.016228  -0.007620   0.009370   0.000000   0.029915
   47  O  3 XY    0.000000   0.000000   0.000000   0.028260   0.000000
   48  O  3 XZ   -0.016220   0.012738   0.028527   0.000000  -0.000686
   49  O  3 YZ    0.000000   0.000000   0.000000   0.014986   0.000000

                     16         17         18         19         20
                   -0.2441    -0.0252     0.1379     0.1731     0.3407
                     A1         B2         A1         B1         B2  
    1  S  1  S    0.022648   0.000000   0.001186   0.000000   0.000000
    2  S  1  S   -0.096109   0.000000  -0.095710   0.000000   0.000000
    3  S  1  S    0.121333   0.000000  -0.095598   0.000000   0.000000
    4  S  1  S    0.937231   0.000000   1.822583   0.000000   0.000000
    5  S  1  X    0.000000   0.000000   0.000000  -0.045467   0.000000
    6  S  1  Y    0.000000  -0.178765   0.000000   0.000000  -0.306172
    7  S  1  Z    0.163736   0.000000  -0.040085   0.000000   0.000000
    8  S  1  X    0.000000   0.000000   0.000000   0.178282   0.000000
    9  S  1  Y    0.000000   0.485710   0.000000   0.000000   1.144611
   10  S  1  Z   -0.333928   0.000000   0.184667   0.000000   0.000000
   11  S  1  X    0.000000   0.000000   0.000000   1.767887   0.000000
   12  S  1  Y    0.000000   0.890531   0.000000   0.000000  -1.089296
   13  S  1  Z   -0.185029   0.000000   1.434840   0.000000   0.000000
   14  S  1 XX   -0.197429   0.000000  -0.077329   0.000000   0.000000
   15  S  1 YY    0.089028   0.000000   0.258569   0.000000   0.000000
   16  S  1 ZZ    0.108401   0.000000  -0.181239   0.000000   0.000000
   17  S  1 XY    0.000000   0.000000   0.000000   0.000000   0.000000
   18  S  1 XZ    0.000000   0.000000   0.000000  -0.139897   0.000000
   19  S  1 YZ    0.000000  -0.164090   0.000000   0.000000   0.034015
   20  O  2  S    0.034990   0.000000   0.069066  -0.063374   0.000000
   21  O  2  S   -0.054575   0.000000  -0.072710   0.070330   0.000000
   22  O  2  S   -0.213857   0.000000  -1.052714   0.949930   0.000000
   23  O  2  X   -0.081733   0.000000  -0.118994  -0.100396   0.000000
   24  O  2  Y    0.000000  -0.338681   0.000000   0.000000  -0.036910
   25  O  2  Z    0.320223   0.000000  -0.092646  -0.201131   0.000000
   26  O  2  X   -0.056502   0.000000  -0.367178  -0.122740   0.000000
   27  O  2  Y    0.000000  -0.439711   0.000000   0.000000  -0.049722
   28  O  2  Z    0.255861   0.000000  -0.156311  -0.306906   0.000000
   29  O  2 XX   -0.015911   0.000000  -0.025724   0.006861   0.000000
   30  O  2 YY    0.014245   0.000000   0.029698  -0.008496   0.000000
   31  O  2 ZZ    0.001665   0.000000  -0.003974   0.001635   0.000000
   32  O  2 XY    0.000000  -0.009393   0.000000   0.000000   0.036758
   33  O  2 XZ    0.026613   0.000000   0.011808  -0.022959   0.000000
   34  O  2 YZ    0.000000  -0.002695   0.000000   0.000000  -0.020175
   35  O  3  S    0.034990   0.000000   0.069066   0.063374   0.000000
   36  O  3  S   -0.054575   0.000000  -0.072710  -0.070330   0.000000
   37  O  3  S   -0.213857   0.000000  -1.052714  -0.949930   0.000000
   38  O  3  X    0.081733   0.000000   0.118994  -0.100396   0.000000
   39  O  3  Y    0.000000  -0.338681   0.000000   0.000000  -0.036910
   40  O  3  Z    0.320223   0.000000  -0.092646   0.201131   0.000000
   41  O  3  X    0.056502   0.000000   0.367178  -0.122740   0.000000
   42  O  3  Y    0.000000  -0.439711   0.000000   0.000000  -0.049722
   43  O  3  Z    0.255861   0.000000  -0.156311   0.306906   0.000000
   44  O  3 XX   -0.015911   0.000000  -0.025724  -0.006861   0.000000
   45  O  3 YY    0.014245   0.000000   0.029698   0.008496   0.000000
   46  O  3 ZZ    0.001665   0.000000  -0.003974  -0.001635   0.000000
   47  O  3 XY    0.000000   0.009393   0.000000   0.000000  -0.036758
   48  O  3 XZ   -0.026613   0.000000  -0.011808  -0.022959   0.000000
   49  O  3 YZ    0.000000  -0.002695   0.000000   0.000000  -0.020175

                     21         22         23         24         25
                    0.3960     0.4702     0.5111     0.6377     0.6441
                     A1         A1         B1         B2         A1  
    1  S  1  S   -0.052418  -0.033389   0.000000   0.000000   0.084222
    2  S  1  S   -0.137788   0.058941   0.000000   0.000000   0.442409
    3  S  1  S   -0.737992  -0.287360   0.000000   0.000000   1.476176
    4  S  1  S    1.226768   2.505484   0.000000   0.000000   0.067354
    5  S  1  X    0.000000   0.000000   0.078968   0.000000   0.000000
    6  S  1  Y    0.000000   0.000000   0.000000  -0.020041   0.000000
    7  S  1  Z   -0.273502  -0.002841   0.000000   0.000000  -0.069642
    8  S  1  X    0.000000   0.000000   0.051559   0.000000   0.000000
    9  S  1  Y    0.000000   0.000000   0.000000   0.061288   0.000000
   10  S  1  Z    1.072955   0.202657   0.000000   0.000000   0.479030
   11  S  1  X    0.000000   0.000000   0.720145   0.000000   0.000000
   12  S  1  Y    0.000000   0.000000   0.000000   0.381699   0.000000
   13  S  1  Z   -0.730975   0.381792   0.000000   0.000000   0.426557
   14  S  1 XX   -0.156659   0.590842   0.000000   0.000000  -0.316752
   15  S  1 YY    0.206802  -0.665545   0.000000   0.000000  -0.039188
   16  S  1 ZZ   -0.050142   0.074704   0.000000   0.000000   0.355941
   17  S  1 XY    0.000000   0.000000   0.000000   0.000000   0.000000
   18  S  1 XZ    0.000000   0.000000   0.737762   0.000000   0.000000
   19  S  1 YZ    0.000000   0.000000   0.000000   0.997604   0.000000
   20  O  2  S    0.015675   0.024903  -0.016789   0.000000   0.044998
   21  O  2  S   -0.044870   0.002478  -0.022797   0.000000  -0.030976
   22  O  2  S   -0.192656  -1.245444   0.993419   0.000000  -0.544334
   23  O  2  X   -0.014350   0.237989  -0.199715   0.000000   0.215925
   24  O  2  Y    0.000000   0.000000   0.000000  -0.305174   0.000000
   25  O  2  Z   -0.024641  -0.192416   0.232698   0.000000   0.128686
   26  O  2  X   -0.201228  -0.626001   0.865298   0.000000  -1.022455
   27  O  2  Y    0.000000   0.000000   0.000000  -0.202586   0.000000
   28  O  2  Z   -0.023916   0.572895  -0.221237   0.000000  -0.072750
   29  O  2 XX    0.013768  -0.017714   0.008266   0.000000   0.009835
   30  O  2 YY    0.018463  -0.000478  -0.020624   0.000000   0.000448
   31  O  2 ZZ   -0.032230   0.018192   0.012358   0.000000  -0.010284
   32  O  2 XY    0.000000   0.000000   0.000000   0.046352   0.000000
   33  O  2 XZ    0.025218   0.041532  -0.027927   0.000000  -0.005158
   34  O  2 YZ    0.000000   0.000000   0.000000   0.055176   0.000000
   35  O  3  S    0.015675   0.024903   0.016789   0.000000   0.044998
   36  O  3  S   -0.044870   0.002478   0.022797   0.000000  -0.030976
   37  O  3  S   -0.192656  -1.245444  -0.993419   0.000000  -0.544334
   38  O  3  X    0.014350  -0.237989  -0.199715   0.000000  -0.215925
   39  O  3  Y    0.000000   0.000000   0.000000  -0.305174   0.000000
   40  O  3  Z   -0.024641  -0.192416  -0.232698   0.000000   0.128686
   41  O  3  X    0.201228   0.626001   0.865298   0.000000   1.022455
   42  O  3  Y    0.000000   0.000000   0.000000  -0.202586   0.000000
   43  O  3  Z   -0.023916   0.572895   0.221237   0.000000  -0.072750
   44  O  3 XX    0.013768  -0.017714  -0.008266   0.000000   0.009835
   45  O  3 YY    0.018463  -0.000478   0.020624   0.000000   0.000448
   46  O  3 ZZ   -0.032230   0.018192  -0.012358   0.000000  -0.010284
   47  O  3 XY    0.000000   0.000000   0.000000  -0.046352   0.000000
   48  O  3 XZ   -0.025218  -0.041532  -0.027927   0.000000   0.005158
   49  O  3 YZ    0.000000   0.000000   0.000000   0.055176   0.000000

                     26         27         28         29         30
                    0.6611     0.6784     0.7311     0.8359     0.8401
                     B1         A2         A1         B2         A2  
    1  S  1  S    0.000000   0.000000   0.044509   0.000000   0.000000
    2  S  1  S    0.000000   0.000000   0.342392   0.000000   0.000000
    3  S  1  S    0.000000   0.000000   0.910253   0.000000   0.000000
    4  S  1  S    0.000000   0.000000  -0.234752   0.000000   0.000000
    5  S  1  X   -0.233173   0.000000   0.000000   0.000000   0.000000
    6  S  1  Y    0.000000   0.000000   0.000000  -0.041870   0.000000
    7  S  1  Z    0.000000   0.000000  -0.021670   0.000000   0.000000
    8  S  1  X    1.255204   0.000000   0.000000   0.000000   0.000000
    9  S  1  Y    0.000000   0.000000   0.000000   0.051488   0.000000
   10  S  1  Z    0.000000   0.000000   0.153106   0.000000   0.000000
   11  S  1  X   -0.339781   0.000000   0.000000   0.000000   0.000000
   12  S  1  Y    0.000000   0.000000   0.000000  -1.150704   0.000000
   13  S  1  Z    0.000000   0.000000  -0.899525   0.000000   0.000000
   14  S  1 XX    0.000000   0.000000   0.347121   0.000000   0.000000
   15  S  1 YY    0.000000   0.000000   0.537392   0.000000   0.000000
   16  S  1 ZZ    0.000000   0.000000  -0.884514   0.000000   0.000000
   17  S  1 XY    0.000000   0.767144   0.000000   0.000000   0.798868
   18  S  1 XZ   -0.343267   0.000000   0.000000   0.000000   0.000000
   19  S  1 YZ    0.000000   0.000000   0.000000  -0.275160   0.000000
   20  O  2  S   -0.051268   0.000000   0.002774   0.000000   0.000000
   21  O  2  S    0.071996   0.000000   0.110359   0.000000   0.000000
   22  O  2  S    0.483839   0.000000  -0.134758   0.000000   0.000000
   23  O  2  X   -0.047660   0.000000   0.106067   0.000000   0.000000
   24  O  2  Y    0.000000  -0.288399   0.000000  -0.594470   0.617617
   25  O  2  Z    0.182183   0.000000  -0.059099   0.000000   0.000000
   26  O  2  X    0.720148   0.000000  -0.200516   0.000000   0.000000
   27  O  2  Y    0.000000   0.904672   0.000000   1.151327  -0.262053
   28  O  2  Z   -0.859151   0.000000   0.905618   0.000000   0.000000
   29  O  2 XX    0.032906   0.000000  -0.018478   0.000000   0.000000
   30  O  2 YY    0.006401   0.000000   0.032503   0.000000   0.000000
   31  O  2 ZZ   -0.039307   0.000000  -0.014026   0.000000   0.000000
   32  O  2 XY    0.000000  -0.025399   0.000000  -0.014930   0.005679
   33  O  2 XZ    0.010791   0.000000  -0.048550   0.000000   0.000000
   34  O  2 YZ    0.000000   0.026268   0.000000   0.020398   0.065714
   35  O  3  S    0.051268   0.000000   0.002774   0.000000   0.000000
   36  O  3  S   -0.071996   0.000000   0.110359   0.000000   0.000000
   37  O  3  S   -0.483839   0.000000  -0.134758   0.000000   0.000000
   38  O  3  X   -0.047660   0.000000  -0.106067   0.000000   0.000000
   39  O  3  Y    0.000000   0.288399   0.000000  -0.594470  -0.617617
   40  O  3  Z   -0.182183   0.000000  -0.059099   0.000000   0.000000
   41  O  3  X    0.720148   0.000000   0.200516   0.000000   0.000000
   42  O  3  Y    0.000000  -0.904672   0.000000   1.151327   0.262053
   43  O  3  Z    0.859151   0.000000   0.905618   0.000000   0.000000
   44  O  3 XX   -0.032906   0.000000  -0.018478   0.000000   0.000000
   45  O  3 YY   -0.006401   0.000000   0.032503   0.000000   0.000000
   46  O  3 ZZ    0.039307   0.000000  -0.014026   0.000000   0.000000
   47  O  3 XY    0.000000  -0.025399   0.000000   0.014930   0.005679
   48  O  3 XZ    0.010791   0.000000   0.048550   0.000000   0.000000
   49  O  3 YZ    0.000000  -0.026268   0.000000   0.020398  -0.065714

                     31         32         33         34         35
                    0.8493     0.9160     1.6131     1.6378     1.7020
                     A1         B1         B1         A1         A1  
    1  S  1  S    0.050901   0.000000   0.000000   0.055690   0.016281
    2  S  1  S    0.201013   0.000000   0.000000  -0.026312   0.088960
    3  S  1  S    0.820603   0.000000   0.000000   0.634906   0.290429
    4  S  1  S   -0.522873   0.000000   0.000000   0.489413   3.049473
    5  S  1  X    0.000000   0.128231  -0.161446   0.000000   0.000000
    6  S  1  Y    0.000000   0.000000   0.000000   0.000000   0.000000
    7  S  1  Z   -0.108228   0.000000   0.000000  -0.166005  -0.079833
    8  S  1  X    0.000000  -0.625150   0.970476   0.000000   0.000000
    9  S  1  Y    0.000000   0.000000   0.000000   0.000000   0.000000
   10  S  1  Z    0.378211   0.000000   0.000000   0.757454   0.570894
   11  S  1  X    0.000000   1.054827   1.311733   0.000000   0.000000
   12  S  1  Y    0.000000   0.000000   0.000000   0.000000   0.000000
   13  S  1  Z   -0.588364   0.000000   0.000000  -0.018119   1.095423
   14  S  1 XX   -0.294245   0.000000   0.000000   0.965802   0.253870
   15  S  1 YY   -0.078650   0.000000   0.000000  -0.602195  -0.351498
   16  S  1 ZZ    0.372896   0.000000   0.000000  -0.363607   0.097628
   17  S  1 XY    0.000000   0.000000   0.000000   0.000000   0.000000
   18  S  1 XZ    0.000000   0.121701   0.463260   0.000000   0.000000
   19  S  1 YZ    0.000000   0.000000   0.000000   0.000000   0.000000
   20  O  2  S    0.022068   0.012316  -0.004871   0.016944   0.012626
   21  O  2  S   -0.119815   0.013575  -0.921808  -0.584464   1.174743
   22  O  2  S    0.123274   0.017596   2.427799  -0.356694  -2.950831
   23  O  2  X   -0.436301   0.272897   0.406989  -0.457791  -0.243233
   24  O  2  Y    0.000000   0.000000   0.000000   0.000000   0.000000
   25  O  2  Z   -0.495337   0.540478  -0.132013   0.445749   0.162965
   26  O  2  X    0.052294  -0.968998   0.211231   0.007213  -0.616734
   27  O  2  Y    0.000000   0.000000   0.000000   0.000000   0.000000
   28  O  2  Z    0.577714  -0.618400  -0.411574   0.015077   0.072835
   29  O  2 XX    0.071017   0.054013  -0.120329   0.075997   0.125120
   30  O  2 YY   -0.041033  -0.044932   0.116257  -0.256089  -0.022593
   31  O  2 ZZ   -0.029985  -0.009080   0.004071   0.180092  -0.102526
   32  O  2 XY    0.000000   0.000000   0.000000   0.000000   0.000000
   33  O  2 XZ    0.039769   0.025225   0.166742  -0.016064  -0.138885
   34  O  2 YZ    0.000000   0.000000   0.000000   0.000000   0.000000
   35  O  3  S    0.022068  -0.012316   0.004871   0.016944   0.012626
   36  O  3  S   -0.119815  -0.013575   0.921808  -0.584464   1.174743
   37  O  3  S    0.123274  -0.017596  -2.427799  -0.356694  -2.950831
   38  O  3  X    0.436301   0.272897   0.406989   0.457791   0.243233
   39  O  3  Y    0.000000   0.000000   0.000000   0.000000   0.000000
   40  O  3  Z   -0.495337  -0.540478   0.132013   0.445749   0.162965
   41  O  3  X   -0.052294  -0.968998   0.211231  -0.007213   0.616734
   42  O  3  Y    0.000000   0.000000   0.000000   0.000000   0.000000
   43  O  3  Z    0.577714   0.618400   0.411574   0.015077   0.072835
   44  O  3 XX    0.071017  -0.054013   0.120329   0.075997   0.125120
   45  O  3 YY   -0.041033   0.044932  -0.116257  -0.256089  -0.022593
   46  O  3 ZZ   -0.029985   0.009080  -0.004071   0.180092  -0.102526
   47  O  3 XY    0.000000   0.000000   0.000000   0.000000   0.000000
   48  O  3 XZ   -0.039769   0.025225   0.166742   0.016064   0.138885
   49  O  3 YZ    0.000000   0.000000   0.000000   0.000000   0.000000

                     36         37         38         39         40
                    1.8829     2.0206     2.0587     2.1963     2.3207
                     B1         A2         B2         A1         B1  
    1  S  1  S    0.000000   0.000000   0.000000   0.014247   0.000000
    2  S  1  S    0.000000   0.000000   0.000000  -0.081423   0.000000
    3  S  1  S    0.000000   0.000000   0.000000   0.075747   0.000000
    4  S  1  S    0.000000   0.000000   0.000000  -0.145827   0.000000
    5  S  1  X   -0.174600   0.000000   0.000000   0.000000   0.121677
    6  S  1  Y    0.000000   0.000000  -0.029703   0.000000   0.000000
    7  S  1  Z    0.000000   0.000000   0.000000  -0.057705   0.000000
    8  S  1  X    0.670672   0.000000   0.000000   0.000000  -0.290107
    9  S  1  Y    0.000000   0.000000   0.209010   0.000000   0.000000
   10  S  1  Z    0.000000   0.000000   0.000000   0.212200   0.000000
   11  S  1  X   -0.206875   0.000000   0.000000   0.000000  -0.019445
   12  S  1  Y    0.000000   0.000000   0.003903   0.000000   0.000000
   13  S  1  Z    0.000000   0.000000   0.000000  -0.086921   0.000000
   14  S  1 XX    0.000000   0.000000   0.000000   0.368880   0.000000
   15  S  1 YY    0.000000   0.000000   0.000000  -0.535390   0.000000
   16  S  1 ZZ    0.000000   0.000000   0.000000   0.166510   0.000000
   17  S  1 XY    0.000000   0.041995   0.000000   0.000000   0.000000
   18  S  1 XZ    0.530206   0.000000   0.000000   0.000000  -0.019257
   19  S  1 YZ    0.000000   0.000000  -0.185043   0.000000   0.000000
   20  O  2  S   -0.002048   0.000000   0.000000  -0.001788   0.001010
   21  O  2  S    0.644301   0.000000   0.000000  -0.439214  -0.466759
   22  O  2  S   -0.276056   0.000000   0.000000   0.267819   0.490843
   23  O  2  X    0.321306   0.000000   0.000000  -0.202739  -0.220697
   24  O  2  Y    0.000000  -0.058444   0.062756   0.000000   0.000000
   25  O  2  Z   -0.177808   0.000000   0.000000   0.107541  -0.017748
   26  O  2  X   -0.037198   0.000000   0.000000   0.143594   0.443553
   27  O  2  Y    0.000000   0.100911  -0.084746   0.000000   0.000000
   28  O  2  Z    0.122105   0.000000   0.000000  -0.049691   0.126183
   29  O  2 XX    0.030991   0.000000   0.000000  -0.151151   0.661128
   30  O  2 YY   -0.425361   0.000000   0.000000   0.563434  -0.340456
   31  O  2 ZZ    0.394370   0.000000   0.000000  -0.412283  -0.320672
   32  O  2 XY    0.000000   0.552261   0.126216   0.000000   0.000000
   33  O  2 XZ    0.284121   0.000000   0.000000  -0.364192   0.294635
   34  O  2 YZ    0.000000   0.451140   0.705782   0.000000   0.000000
   35  O  3  S    0.002048   0.000000   0.000000  -0.001788  -0.001010
   36  O  3  S   -0.644301   0.000000   0.000000  -0.439214   0.466759
   37  O  3  S    0.276056   0.000000   0.000000   0.267819  -0.490843
   38  O  3  X    0.321306   0.000000   0.000000   0.202739  -0.220697
   39  O  3  Y    0.000000   0.058444   0.062756   0.000000   0.000000
   40  O  3  Z    0.177808   0.000000   0.000000   0.107541   0.017748
   41  O  3  X   -0.037198   0.000000   0.000000  -0.143594   0.443553
   42  O  3  Y    0.000000  -0.100911  -0.084746   0.000000   0.000000
   43  O  3  Z   -0.122105   0.000000   0.000000  -0.049691  -0.126183
   44  O  3 XX   -0.030991   0.000000   0.000000  -0.151151  -0.661128
   45  O  3 YY    0.425361   0.000000   0.000000   0.563434   0.340456
   46  O  3 ZZ   -0.394370   0.000000   0.000000  -0.412283   0.320672
   47  O  3 XY    0.000000   0.552261  -0.126216   0.000000   0.000000
   48  O  3 XZ    0.284121   0.000000   0.000000   0.364192   0.294635
   49  O  3 YZ    0.000000  -0.451140   0.705782   0.000000   0.000000

                     41         42         43         44         45
                    2.4478     2.6093     2.6275     2.8368     2.8707
                     B1         B2         A2         A1         B1  
    1  S  1  S    0.000000   0.000000   0.000000   0.090997   0.000000
    2  S  1  S    0.000000   0.000000   0.000000   0.966197   0.000000
    3  S  1  S    0.000000   0.000000   0.000000   2.411071   0.000000
    4  S  1  S    0.000000   0.000000   0.000000   1.611901   0.000000
    5  S  1  X   -0.121044   0.000000   0.000000   0.000000  -0.191683
    6  S  1  Y    0.000000   0.110871   0.000000   0.000000   0.000000
    7  S  1  Z    0.000000   0.000000   0.000000  -0.054342   0.000000
    8  S  1  X   -0.006380   0.000000   0.000000   0.000000   2.666677
    9  S  1  Y    0.000000  -0.749333   0.000000   0.000000   0.000000
   10  S  1  Z    0.000000   0.000000   0.000000   1.315488   0.000000
   11  S  1  X   -0.179048   0.000000   0.000000   0.000000   0.361734
   12  S  1  Y    0.000000  -0.223020   0.000000   0.000000   0.000000
   13  S  1  Z    0.000000   0.000000   0.000000   0.197944   0.000000
   14  S  1 XX    0.000000   0.000000   0.000000   0.698756   0.000000
   15  S  1 YY    0.000000   0.000000   0.000000  -0.528033   0.000000
   16  S  1 ZZ    0.000000   0.000000   0.000000  -0.170723   0.000000
   17  S  1 XY    0.000000   0.000000   0.988458   0.000000   0.000000
   18  S  1 XZ    0.965227   0.000000   0.000000   0.000000   1.182169
   19  S  1 YZ    0.000000  -0.611405   0.000000   0.000000   0.000000
   20  O  2  S    0.024522   0.000000   0.000000   0.039108  -0.021556
   21  O  2  S    0.881098   0.000000   0.000000   0.329252   0.050447
   22  O  2  S   -0.766276   0.000000   0.000000  -2.290258   2.186355
   23  O  2  X    0.318705   0.000000   0.000000  -0.409527   0.628658
   24  O  2  Y    0.000000   0.031290   0.106780   0.000000   0.000000
   25  O  2  Z   -0.141878   0.000000   0.000000   0.259937  -0.319165
   26  O  2  X   -0.263324   0.000000   0.000000  -0.951357   0.962802
   27  O  2  Y    0.000000   0.404427   0.376183   0.000000   0.000000
   28  O  2  Z    0.405216   0.000000   0.000000   0.598780  -0.494236
   29  O  2 XX    0.119224   0.000000   0.000000  -0.588010   0.539750
   30  O  2 YY    0.441906   0.000000   0.000000   0.508356  -0.326974
   31  O  2 ZZ   -0.561131   0.000000   0.000000   0.079654  -0.212776
   32  O  2 XY    0.000000   0.842508   0.606258   0.000000   0.000000
   33  O  2 XZ    0.291959   0.000000   0.000000   0.707417  -0.708890
   34  O  2 YZ    0.000000  -0.181267  -0.654083   0.000000   0.000000
   35  O  3  S   -0.024522   0.000000   0.000000   0.039108   0.021556
   36  O  3  S   -0.881098   0.000000   0.000000   0.329252  -0.050447
   37  O  3  S    0.766276   0.000000   0.000000  -2.290258  -2.186355
   38  O  3  X    0.318705   0.000000   0.000000   0.409527   0.628658
   39  O  3  Y    0.000000   0.031290  -0.106780   0.000000   0.000000
   40  O  3  Z    0.141878   0.000000   0.000000   0.259937   0.319165
   41  O  3  X   -0.263324   0.000000   0.000000   0.951357   0.962802
   42  O  3  Y    0.000000   0.404427  -0.376183   0.000000   0.000000
   43  O  3  Z   -0.405216   0.000000   0.000000   0.598780   0.494236
   44  O  3 XX   -0.119224   0.000000   0.000000  -0.588010  -0.539750
   45  O  3 YY   -0.441906   0.000000   0.000000   0.508356   0.326974
   46  O  3 ZZ    0.561131   0.000000   0.000000   0.079654   0.212776
   47  O  3 XY    0.000000  -0.842508   0.606258   0.000000   0.000000
   48  O  3 XZ    0.291959   0.000000   0.000000  -0.707417  -0.708890
   49  O  3 YZ    0.000000  -0.181267   0.654083   0.000000   0.000000

                     46
                    3.0157
                     A1  
    1  S  1  S    0.009524
    2  S  1  S    0.002203
    3  S  1  S    0.121620
    4  S  1  S   -0.161949
    5  S  1  X    0.000000
    6  S  1  Y    0.000000
    7  S  1  Z    0.100203
    8  S  1  X    0.000000
    9  S  1  Y    0.000000
   10  S  1  Z   -0.710031
   11  S  1  X    0.000000
   12  S  1  Y    0.000000
   13  S  1  Z   -0.352771
   14  S  1 XX    1.126314
   15  S  1 YY   -0.091007
   16  S  1 ZZ   -1.035306
   17  S  1 XY    0.000000
   18  S  1 XZ    0.000000
   19  S  1 YZ    0.000000
   20  O  2  S   -0.021108
   21  O  2  S   -0.254579
   22  O  2  S    0.203546
   23  O  2  X    0.037296
   24  O  2  Y    0.000000
   25  O  2  Z    0.245493
   26  O  2  X    0.258774
   27  O  2  Y    0.000000
   28  O  2  Z    0.420773
   29  O  2 XX    0.735626
   30  O  2 YY    0.007175
   31  O  2 ZZ   -0.742801
   32  O  2 XY    0.000000
   33  O  2 XZ    0.483267
   34  O  2 YZ    0.000000
   35  O  3  S   -0.021108
   36  O  3  S   -0.254579
   37  O  3  S    0.203546
   38  O  3  X   -0.037296
   39  O  3  Y    0.000000
   40  O  3  Z    0.245493
   41  O  3  X   -0.258774
   42  O  3  Y    0.000000
   43  O  3  Z    0.420773
   44  O  3 XX    0.735626
   45  O  3 YY    0.007175
   46  O  3 ZZ   -0.742801
   47  O  3 XY    0.000000
   48  O  3 XZ   -0.483267
   49  O  3 YZ    0.000000
 ...... END OF RHF CALCULATION ......
 STEP CPU TIME =     4.78 TOTAL CPU TIME =        5.0 (    0.1 MIN)
 TOTAL WALL CLOCK TIME=        5.0 SECONDS, CPU UTILIZATION IS 100.00%

     ---------------------------------------------------------------------
     PROPERTIES FOR THE PBE      DFT FUNCTIONAL (RHF  TYPE) DENSITY MATRIX
     ---------------------------------------------------------------------

          -----------------
          ENERGY COMPONENTS
          -----------------

         WAVEFUNCTION NORMALIZATION =       1.0000000000

                ONE ELECTRON ENERGY =   -1033.7852950865
                TWO ELECTRON ENERGY =     345.3486545697
           NUCLEAR REPULSION ENERGY =     140.9297235932
                                      ------------------
                       TOTAL ENERGY =    -547.5069169237

 ELECTRON-ELECTRON POTENTIAL ENERGY =     345.3486545697
  NUCLEUS-ELECTRON POTENTIAL ENERGY =   -1586.9858325696
   NUCLEUS-NUCLEUS POTENTIAL ENERGY =     140.9297235932
                                      ------------------
             TOTAL POTENTIAL ENERGY =   -1100.7074544068
               TOTAL KINETIC ENERGY =     553.2005374831
                 VIRIAL RATIO (V/T) =       1.9897078543

          ---------------------------------------
          MULLIKEN AND LOWDIN POPULATION ANALYSES
          ---------------------------------------

     ATOMIC MULLIKEN POPULATION IN EACH MOLECULAR ORBITAL

                      1          2          3          4          5

                  2.000000   2.000000   2.000000   2.000000   2.000000

    1             2.000098  -0.001244   0.001602   2.002727   1.994934
    2            -0.000049   1.000622   0.999199  -0.001364   0.002533
    3            -0.000049   1.000622   0.999199  -0.001364   0.002533

                      6          7          8          9         10

                  2.000000   2.000000   2.000000   2.000000   2.000000

    1             1.999758   1.998316   0.721122   0.647341   0.853526
    2             0.000121   0.000842   0.639439   0.676330   0.573237
    3             0.000121   0.000842   0.639439   0.676330   0.573237

                     11         12         13         14         15

                  2.000000   2.000000   2.000000   2.000000   2.000000

    1             0.933739   0.200212   0.177580   0.257491   0.239280
    2             0.533130   0.899894   0.911210   0.871255   0.880360
    3             0.533130   0.899894   0.911210   0.871255   0.880360

                     16

                  2.000000

    1             1.543010
    2             0.228495
    3             0.228495

               ----- POPULATIONS IN EACH AO -----
                             MULLIKEN      LOWDIN
              1  S  1  S      2.00026     1.99594
              2  S  1  S      2.01210     1.87992
              3  S  1  S      0.81498     0.48223
              4  S  1  S      1.07980     0.61418
              5  S  1  X      1.99666     1.95642
              6  S  1  Y      1.99535     1.95538
              7  S  1  Z      1.99691     1.96595
              8  S  1  X      0.70584     0.60712
              9  S  1  Y      0.65475     0.57095
             10  S  1  Z      0.86815     0.82075
             11  S  1  X      0.10027     0.25544
             12  S  1  Y      0.16019     0.24062
             13  S  1  Z      0.23319     0.35911
             14  S  1 XX      0.18262     0.39954
             15  S  1 YY      0.21282     0.23217
             16  S  1 ZZ      0.25749     0.35703
             17  S  1 XY      0.25512     0.33917
             18  S  1 XZ      0.04300     0.33216
             19  S  1 YZ      0.00000     0.04401
             20  O  2  S      1.99835     1.97671
             21  O  2  S      0.78978     0.59144
             22  O  2  S      0.82833     0.47150
             23  O  2  X      1.14629     1.10596
             24  O  2  Y      0.94936     0.88560
             25  O  2  Z      1.12158     1.08561
             26  O  2  X      0.39458     0.49668
             27  O  2  Y      0.47789     0.51541
             28  O  2  Z      0.46500     0.54669
             29  O  2 XX      0.00859     0.21029
             30  O  2 YY      0.00751     0.17383
             31  O  2 ZZ      0.01299     0.17864
             32  O  2 XY      0.01064     0.01847
             33  O  2 XZ      0.00437     0.03369
             34  O  2 YZ      0.00000     0.00546
             35  O  3  S      1.99835     1.97671
             36  O  3  S      0.78978     0.59144
             37  O  3  S      0.82833     0.47150
             38  O  3  X      1.14629     1.10596
             39  O  3  Y      0.94936     0.88560
             40  O  3  Z      1.12158     1.08561
             41  O  3  X      0.39458     0.49668
             42  O  3  Y      0.47789     0.51541
             43  O  3  Z      0.46500     0.54669
             44  O  3 XX      0.00859     0.21029
             45  O  3 YY      0.00751     0.17383
             46  O  3 ZZ      0.01299     0.17864
             47  O  3 XY      0.01064     0.01847
             48  O  3 XZ      0.00437     0.03369
             49  O  3 YZ      0.00000     0.00546

          ----- MULLIKEN ATOMIC OVERLAP POPULATIONS -----
          (OFF-DIAGONAL ELEMENTS NEED TO BE MULTIPLIED BY 2)

             1           2           3

    1   14.8489414
    2    0.3602747   7.9354860
    3    0.3602747  -0.0805060   7.9354860

          TOTAL MULLIKEN AND LOWDIN ATOMIC POPULATIONS
       ATOM         MULL.POP.    CHARGE          LOW.POP.     CHARGE
    1 S            15.569491    0.430509        15.408072    0.591928
    2 O             8.215255   -0.215255         8.295964   -0.295964
    3 O             8.215255   -0.215255         8.295964   -0.295964

          MULLIKEN SPHERICAL HARMONIC POPULATIONS
       ATOM           S       P       D      F      G      H      I    TOTAL
    1 S             5.91    8.71    0.95   0.00   0.00   0.00   0.00   15.57
    2 O             3.62    4.55    0.04   0.00   0.00   0.00   0.00    8.22
    3 O             3.62    4.55    0.04   0.00   0.00   0.00   0.00    8.22

          -------------------------------
          BOND ORDER AND VALENCE ANALYSIS     BOND ORDER THRESHOLD=0.050
          -------------------------------

                   BOND                       BOND                       BOND
  ATOM PAIR DIST  ORDER      ATOM PAIR DIST  ORDER      ATOM PAIR DIST  ORDER
    1   2  1.100  2.138        1   3  1.100  2.138

                       TOTAL       BONDED        FREE
      ATOM            VALENCE     VALENCE     VALENCE
    1 S                 4.275       4.275       0.000
    2 O                 2.159       2.159       0.000
    3 O                 2.159       2.159       0.000

          ---------------------
          ELECTROSTATIC MOMENTS
          ---------------------

 POINT   1           X           Y           Z (BOHR)    CHARGE
                 0.000000    0.000000    0.000000        0.00 (A.U.)
         DX          DY          DZ         /D/  (DEBYE)
     0.000000    0.000000   -0.446681    0.446681
 ...... END OF PROPERTY EVALUATION ......
 STEP CPU TIME =     0.01 TOTAL CPU TIME =        5.0 (    0.1 MIN)
 TOTAL WALL CLOCK TIME=        5.0 SECONDS, CPU UTILIZATION IS 100.00%
               580000  WORDS OF DYNAMIC MEMORY USED
 EXECUTION OF GAMESS TERMINATED NORMALLY Thu Feb 26 00:11:39 2015
 DDI: 263624 bytes (0.3 MB / 0 MWords) used by master data server.

 ----------------------------------------
 CPU timing information for all processes
 ========================================
 0: 4.950 + 0.22 = 4.973
 ----------------------------------------
 ddikick.x: exited gracefully.
----- accounting info -----
Files used on the master node dftfe.crc.nd.edu were:
-rw-r--r-- 1 pmehta1 campus   37475 Feb 26 00:11 /tmp/gamess.dat
-rw-r--r-- 1 pmehta1 campus     142 Feb 26 00:11 /tmp/gamess.F05
-rw-r--r-- 1 pmehta1 campus 2340312 Feb 26 00:11 /tmp/gamess.F08
-rw-r--r-- 1 pmehta1 campus 1220440 Feb 26 00:11 /tmp/gamess.F10
Thu Feb 26 00:11:42 EST 2015
0.237u 0.184s 0:09.39 4.3%	0+0k 0+104io 0pf+0w
