----- GAMESS execution script 'rungms' -----
This job is running on host dftfe.crc.nd.edu
under operating system Linux at Thu Feb 26 00:14:55 EST 2015
Available scratch disk space (Kbyte units) at beginning of the job is
Filesystem     1K-blocks     Used Available Use% Mounted on
/dev/sda2      147771864 22811932 117453500  17% /
GAMESS temporary binary files will be written to /tmp
GAMESS supplementary output files will be written to /tmp
Copying input file gamess.inp to your run's scratch directory...

 Distributed Data Interface kickoff program.
 Initiating 1 compute processes on 1 nodes to run the following command:
 /opt/crc/gamess/2012R1/gamess/gamess.00.x gamess 

          ******************************************************
          *         GAMESS VERSION =  1 MAY 2012 (R1)          *
          *             FROM IOWA STATE UNIVERSITY             *
          * M.W.SCHMIDT, K.K.BALDRIDGE, J.A.BOATZ, S.T.ELBERT, *
          *   M.S.GORDON, J.H.JENSEN, S.KOSEKI, N.MATSUNAGA,   *
          *          K.A.NGUYEN, S.J.SU, T.L.WINDUS,           *
          *       TOGETHER WITH M.DUPUIS, J.A.MONTGOMERY       *
          *         J.COMPUT.CHEM.  14, 1347-1363(1993)        *
          **************** 64 BIT LINUX VERSION ****************

  SINCE 1993, STUDENTS AND POSTDOCS WORKING AT IOWA STATE UNIVERSITY
  AND ALSO IN THEIR VARIOUS JOBS AFTER LEAVING ISU HAVE MADE IMPORTANT
  CONTRIBUTIONS TO THE CODE:
     IVANA ADAMOVIC, CHRISTINE AIKENS, YURI ALEXEEV, POOJA ARORA,
     ANDREY ASADCHEV, ROB BELL, PRADIPTA BANDYOPADHYAY, JONATHAN BENTZ,
     BRETT BODE, GALINA CHABAN, WEI CHEN, CHEOL HO CHOI, PAUL DAY,
     ALBERT DEFUSCO, TIM DUDLEY, DMITRI FEDOROV, GRAHAM FLETCHER,
     MARK FREITAG, KURT GLAESEMANN, DAN KEMP, GRANT MERRILL,
     NORIYUKI MINEZAWA, JONATHAN MULLIN, TAKESHI NAGATA,
     SEAN NEDD, HEATHER NETZLOFF, BOSILJKA NJEGIC, RYAN OLSON, MIKE PAK,
     JIM SHOEMAKER, LYUDMILA SLIPCHENKO, SAROM SOK, JIE SONG,
     TETSUYA TAKETSUGU, SIMON WEBB, SOOHAENG YOO, FEDERICO ZAHARIEV

  ADDITIONAL CODE HAS BEEN PROVIDED BY COLLABORATORS IN OTHER GROUPS:
     IOWA STATE UNIVERSITY:
          JOE IVANIC, LAIMUTIS BYTAUTAS, KLAUS RUEDENBERG
     UNIVERSITY OF TOKYO: KIMIHIKO HIRAO, TAKAHITO NAKAJIMA,
          TAKAO TSUNEDA, MUNEAKI KAMIYA, SUSUMU YANAGISAWA,
          KIYOSHI YAGI, MAHITO CHIBA, SEIKEN TOKURA, NAOAKI KAWAKAMI
     UNIVERSITY OF AARHUS: FRANK JENSEN
     UNIVERSITY OF IOWA: VISVALDAS KAIRYS, HUI LI
     NATIONAL INST. OF STANDARDS AND TECHNOLOGY: WALT STEVENS, DAVID GARMER
     UNIVERSITY OF PISA: BENEDETTA MENNUCCI, JACOPO TOMASI
     UNIVERSITY OF MEMPHIS: HENRY KURTZ, PRAKASHAN KORAMBATH
     UNIVERSITY OF ALBERTA: TOBY ZENG, MARIUSZ KLOBUKOWSKI
     UNIVERSITY OF NEW ENGLAND: MARK SPACKMAN
     MIE UNIVERSITY: HIROAKI UMEDA
     MICHIGAN STATE UNIVERSITY:
          KAROL KOWALSKI, MARTA WLOCH, JEFFREY GOUR, JESSE LUTZ, PIOTR PIECUCH
     UNIVERSITY OF SILESIA: MONIKA MUSIAL, STANISLAW KUCHARSKI
     FACULTES UNIVERSITAIRES NOTRE-DAME DE LA PAIX:
          OLIVIER QUINET, BENOIT CHAMPAGNE
     UNIVERSITY OF CALIFORNIA - SANTA BARBARA: BERNARD KIRTMAN
     INSTITUTE FOR MOLECULAR SCIENCE:
          KAZUYA ISHIMURA, MICHIO KATOUDA, AND SHIGERU NAGASE
     UNIVERSITY OF NOTRE DAME: DAN CHIPMAN
     KYUSHU UNIVERSITY:
          HARUYUKI NAKANO,
          FENG LONG GU, JACEK KORCHOWIEC, MARCIN MAKOWSKI, AND YURIKO AOKI,
          HIROTOSHI MORI AND EISAKU MIYOSHI
     PENNSYLVANIA STATE UNIVERSITY:
          TZVETELIN IORDANOV, CHET SWALINA, JONATHAN SKONE,
          SHARON HAMMES-SCHIFFER
     WASEDA UNIVERSITY:
          MASATO KOBAYASHI, TOMOKO AKAMA, TSUGUKI TOUMA,
          TAKESHI YOSHIKAWA, YASUHIRO IKABATA, HIROMI NAKAI
     UNIVERSITY OF NEBRASKA:
          PEIFENG SU, DEJUN SI, NANDUN THELLAMUREGE, YALI WANG, HUI LI
     UNIVERSITY OF ZURICH:
          ROBERTO PEVERATI, KIM BALDRIDGE
     N. COPERNICUS UNIVERSITY AND JACKSON STATE UNIVERSITY:
          MARIA BARYSZ

 EXECUTION OF GAMESS BEGUN Thu Feb 26 00:14:55 2015

            ECHO OF THE FIRST FEW INPUT CARDS -
 INPUT CARD> $BASIS GBASIS=PC1 $END                                                         
 INPUT CARD> $CONTRL COORD=ZMT ISPHER=1 RUNTYP=ENERGY DFTTYP=PBE $END                       
 INPUT CARD>                                                                                
 INPUT CARD> $DATA                                                                          
 INPUT CARD>Title                                                                           
 INPUT CARD>Cnv 2                                                                           
 INPUT CARD>                                                                                
 INPUT CARD>S                                                                               
 INPUT CARD>O 1 1.30                                                                        
 INPUT CARD>O 1 1.30 2 170.0                                                                
 INPUT CARD> $END                                                                           
    1000000 WORDS OF MEMORY AVAILABLE

     BASIS OPTIONS
     -------------
     GBASIS=PC1          IGAUSS=       0      POLAR=NONE    
     NDFUNC=       0     NFFUNC=       0     DIFFSP=       F
     NPFUNC=       0      DIFFS=       F     BASNAM=        


     RUN TITLE
     ---------
 Title                                                                           

 THE POINT GROUP OF THE MOLECULE IS CNV     
 THE ORDER OF THE PRINCIPAL AXIS IS     2

 YOUR FULLY SUBSTITUTED Z-MATRIX IS
 S   
 O      1   1.3000000
 O      1   1.3000000  2  170.0000

 THE MOMENTS OF INERTIA ARE (AMU-ANGSTROM**2)
 IXX=     0.205   IYY=    53.652   IZZ=    53.857

 ATOM      ATOMIC                      COORDINATES (BOHR)
           CHARGE         X                   Y                   Z
 S          16.0     0.0000000000        0.0000000000       -0.1070850156
 O           8.0    -2.4472955128        0.0000000000        0.1070255980
 O           8.0     2.4472955128        0.0000000000        0.1070255980

          INTERNUCLEAR DISTANCES (ANGS.)
          ------------------------------

                1 S          2 O          3 O     

   1 S       0.0000000    1.3000000 *  1.3000000 *
   2 O       1.3000000 *  0.0000000    2.5901062 *
   3 O       1.3000000 *  2.5901062 *  0.0000000  

  * ... LESS THAN  3.000


     ATOMIC BASIS SET
     ----------------
 THE CONTRACTED PRIMITIVE FUNCTIONS HAVE BEEN UNNORMALIZED
 THE CONTRACTED BASIS FUNCTIONS ARE NOW NORMALIZED TO UNITY

  SHELL TYPE  PRIMITIVE        EXPONENT          CONTRACTION COEFFICIENT(S)

 S         

      1   S       1         55510.0000000    0.000587229760
      1   S       2          8326.7000000    0.004532413947
      1   S       3          1895.6000000    0.023265261648
      1   S       4           536.7700000    0.089696133027
      1   S       5           174.6700000    0.254098332277
      1   S       6            62.5780000    0.438665087637
      1   S       7            23.5730000    0.314547135094
      1   S       8             5.8908000    0.032727897102

      2   S       9          8326.7000000   -0.000019755715
      2   S      10          1895.6000000   -0.000043822381
      2   S      11           536.7700000   -0.001730264906
      2   S      12           174.6700000   -0.009381263460
      2   S      13            62.5780000   -0.064050766303
      2   S      14            23.5730000   -0.082478179196
      2   S      15             5.8908000    0.478342956889
      2   S      16             2.1852000    0.626896670208

      3   S      17          1895.6000000    0.000016227260
      3   S      18           536.7700000    0.000191135619
      3   S      19           174.6700000    0.001952069674
      3   S      20            62.5780000    0.010578701087
      3   S      21            23.5730000    0.022164934551
      3   S      22             5.8908000   -0.184968323118
      3   S      23             2.1852000   -0.480920750976
      3   S      24             0.4528200    1.243822243872

      4   S      25             0.1620200    1.000000000000

      5   P      26           395.4500000    0.004642761329
      5   P      27            92.8340000    0.036023396489
      5   P      28            29.2660000    0.149058869978
      5   P      29            10.5950000    0.360033266263
      5   P      30             4.0272000    0.455756476221
      5   P      31             1.5484000    0.206167664178

      6   P      32            92.8340000    0.000169901442
      6   P      33            29.2660000   -0.002541839934
      6   P      34            10.5950000   -0.007867614595
      6   P      35             4.0272000   -0.037231009184
      6   P      36             1.5484000    0.161417246830
      6   P      37             0.4613400    0.902230419976

      7   P      38             0.1313100    1.000000000000

      8   D      39             0.5500000    1.000000000000

 O         

     15   S      40          2306.7000000    0.005424388755
     15   S      41           347.1500000    0.040474749465
     15   S      42            78.8900000    0.180219634554
     15   S      43            21.8760000    0.462370311787
     15   S      44             6.6646000    0.454888396263

     16   S      45           347.1500000   -0.000655003786
     16   S      46            78.8900000   -0.005362052952
     16   S      47            21.8760000   -0.074902158894
     16   S      48             6.6646000   -0.181442579655
     16   S      49             1.0669000    1.102006874042

     17   S      50             0.3070000    1.000000000000

     18   P      51            17.0220000    0.068979967443
     18   P      52             3.6838000    0.351985516325
     18   P      53             0.9923400    0.724036547822

     19   P      54             0.2448700    1.000000000000

     20   D      55             1.0000000    1.000000000000

 TOTAL NUMBER OF BASIS SET SHELLS             =   20
 NUMBER OF CARTESIAN GAUSSIAN BASIS FUNCTIONS =   49
 NOTE: THIS RUN WILL RESTRICT THE MO VARIATION SPACE TO SPHERICAL HARMONICS.
 THE NUMBER OF ORBITALS KEPT IN THE VARIATIONAL SPACE WILL BE PRINTED LATER.
 NUMBER OF ELECTRONS                          =   32
 CHARGE OF MOLECULE                           =    0
 SPIN MULTIPLICITY                            =    1
 NUMBER OF OCCUPIED ORBITALS (ALPHA)          =   16
 NUMBER OF OCCUPIED ORBITALS (BETA )          =   16
 TOTAL NUMBER OF ATOMS                        =    3
 THE NUCLEAR REPULSION ENERGY IS      117.2828705054

     LEBEDEV GRID-BASED DFT OPTIONS
     ------------------------------
     DFTTYP=PBE     
     NRAD  =      96     NLEB  =     302
     NRAD0 =      24     NLEB0 =     110
     SWOFF =    5.00E-03 (PURE SCF -> DFT)
     SWITCH=    3.00E-04 (COARSE -> TIGHT GRID)
     THRESH=    0.00E+00 GTHRE=    1.00E+00

 GRIMME'S EMPIRICAL DISPERSION CORRECTION= F

     $CONTRL OPTIONS
     ---------------
 SCFTYP=RHF          RUNTYP=ENERGY       EXETYP=RUN     
 MPLEVL=       0     CITYP =NONE         CCTYP =NONE         VBTYP =NONE    
 DFTTYP=PBE          TDDFT =NONE    
 MULT  =       1     ICHARG=       0     NZVAR =       0     COORD =ZMT     
 PP    =NONE         RELWFN=NONE         LOCAL =NONE         NUMGRD=       F
 ISPHER=       1     NOSYM =       0     MAXIT =      30     UNITS =ANGS    
 PLTORB=       F     MOLPLT=       F     AIMPAC=       F     FRIEND=        
 NPRINT=       7     IREST =       0     GEOM  =INPUT   
 NORMF =       0     NORMP =       0     ITOL  =      20     ICUT  =       9
 INTTYP=BEST         GRDTYP=BEST         QMTTOL= 1.0E-06

     $SYSTEM OPTIONS
     ---------------
  REPLICATED MEMORY=     1000000 WORDS (ON EVERY NODE).
 DISTRIBUTED MEMDDI=           0 MILLION WORDS IN AGGREGATE,
 MEMDDI DISTRIBUTED OVER   1 PROCESSORS IS           0 WORDS/PROCESSOR.
 TOTAL MEMORY REQUESTED ON EACH PROCESSOR=     1000000 WORDS.
 TIMLIM=      525600.00 MINUTES, OR     365.0 DAYS.
 PARALL= F  BALTYP=  DLB     KDIAG=    0  COREFL= F
 MXSEQ2=     300 MXSEQ3=     150

          ----------------
          PROPERTIES INPUT
          ----------------

     MOMENTS            FIELD           POTENTIAL          DENSITY
 IEMOM =       1   IEFLD =       0   IEPOT =       0   IEDEN =       0
 WHERE =COMASS     WHERE =NUCLEI     WHERE =NUCLEI     WHERE =NUCLEI  
 OUTPUT=BOTH       OUTPUT=BOTH       OUTPUT=BOTH       OUTPUT=BOTH    
 IEMINT=       0   IEFINT=       0                     IEDINT=       0
                                                       MORB  =       0
          EXTRAPOLATION IN EFFECT
          DIIS IN EFFECT
 ORBITAL PRINTING OPTION: NPREO=     1    49     2     1

     -------------------------------
     INTEGRAL TRANSFORMATION OPTIONS
     -------------------------------
     NWORD  =            0
     CUTOFF = 1.0E-09     MPTRAN =       0
     DIRTRF =       F     AOINTS =DUP     

          ----------------------
          INTEGRAL INPUT OPTIONS
          ----------------------
 NOPK  =       1 NORDER=       0 SCHWRZ=       F

   --- ENCODED Z MATRIX ---
 COORD  TYPE   I   J   K   L   M   N
    1      1    3   1
    2      1    2   1
    3      2    2   1   3

 THE DETERMINANT OF THE G MATRIX IS 10**(    -4)

 THE DETERMINANT OF THE G MATRIX IS 10**(    -4)
 * * * WARNING * * *
 YOUR B MATRIX HAS A SMALL DETERMINANT.
 THIS SUGGESTS YOU MAY HAVE BADLY CHOSEN COORDINATES.

     ------------------------------------------
     THE POINT GROUP IS CNV, NAXIS= 2, ORDER= 4
     ------------------------------------------

 -- VARIATIONAL SPACE WILL BE RESTRICTED TO PURE SPHERICAL HARMONICS ONLY --
 AFTER EXCLUDING CONTAMINANT COMBINATIONS FROM THE CARTESIAN GAUSSIAN BASIS
 SET, THE NUMBER OF SPHERICAL HARMONICS KEPT IN THE VARIATION SPACE IS   46

     DIMENSIONS OF THE SYMMETRY SUBSPACES ARE
 A1  =   19     A2  =    5     B1  =   14     B2  =    8

 ..... DONE SETTING UP THE RUN .....
 STEP CPU TIME =     0.01 TOTAL CPU TIME =        0.0 (    0.0 MIN)
 TOTAL WALL CLOCK TIME=        0.0 SECONDS, CPU UTILIZATION IS  50.00%

          ********************
          1 ELECTRON INTEGRALS
          ********************
 ...... END OF ONE-ELECTRON INTEGRALS ......
 STEP CPU TIME =     0.00 TOTAL CPU TIME =        0.0 (    0.0 MIN)
 TOTAL WALL CLOCK TIME=        0.0 SECONDS, CPU UTILIZATION IS  50.00%

          -------------
          GUESS OPTIONS
          -------------
          GUESS =HUCKEL            NORB  =       0          NORDER=       0
          MIX   =       F          PRTMO =       F          PUNMO =       F
          TOLZ  = 1.0E-08          TOLE  = 1.0E-05
          SYMDEN=       F          PURIFY=       F

 INITIAL GUESS ORBITALS GENERATED BY HUCKEL   ROUTINE.
 HUCKEL GUESS REQUIRES     21583 WORDS.

 STATISTICS FOR GENERATION OF SYMMETRY ORBITAL -Q- MATRIX
 NUMBER OF CARTESIAN ATOMIC ORBITALS=         49
 NUMBER OF SPHERICAL CONTAMINANTS DROPPED=     3
 NUMBER OF LINEARLY DEPENDENT MOS DROPPED=     0
 TOTAL NUMBER OF MOS IN VARIATION SPACE=      46

 SYMMETRIES FOR INITIAL GUESS ORBITALS FOLLOW.   BOTH SET(S).
    16 ORBITALS ARE OCCUPIED (    7 CORE ORBITALS).
     8=?A1      9=?B1     10=A1      11=B2      12=A1      13=B1      14=A2  
    15=B1      16=A1      17=B2      18=A1      19=B1      20=A1      21=A1  
    22=A1      23=A1      24=A1      25=A1      26=A1  
 ...... END OF INITIAL ORBITAL SELECTION ......
 STEP CPU TIME =     0.01 TOTAL CPU TIME =        0.0 (    0.0 MIN)
 TOTAL WALL CLOCK TIME=        0.0 SECONDS, CPU UTILIZATION IS  66.67%

                    ----------------------
                    AO INTEGRAL TECHNOLOGY
                    ----------------------
     S,P,L SHELL ROTATED AXIS INTEGRALS, REPROGRAMMED BY
        KAZUYA ISHIMURA (IMS) AND JOSE SIERRA (SYNSTAR).
     S,P,D,L SHELL ROTATED AXIS INTEGRALS PROGRAMMED BY
        KAZUYA ISHIMURA (INSTITUTE FOR MOLECULAR SCIENCE).
     S,P,D,F,G SHELL TO TOTAL QUARTET ANGULAR MOMENTUM SUM 5,
        ERIC PROGRAM BY GRAHAM FLETCHER (ELORET AND NASA ADVANCED
        SUPERCOMPUTING DIVISION, AMES RESEARCH CENTER).
     S,P,D,F,G,L SHELL GENERAL RYS QUADRATURE PROGRAMMED BY
        MICHEL DUPUIS (PACIFIC NORTHWEST NATIONAL LABORATORY).

          --------------------
          2 ELECTRON INTEGRALS
          --------------------

 THE -PK- OPTION IS OFF, THE INTEGRALS ARE NOT IN SUPERMATRIX FORM.
 STORING   15000 INTEGRALS/RECORD ON DISK, USING 12 BYTES/INTEGRAL.
 TWO ELECTRON INTEGRAL EVALUATION REQUIRES   90606 WORDS OF MEMORY.
 II,JST,KST,LST =  1  1  1  1 NREC =         1 INTLOC =    1
 II,JST,KST,LST =  2  1  1  1 NREC =         1 INTLOC =    2
 II,JST,KST,LST =  3  1  1  1 NREC =         1 INTLOC =    7
 II,JST,KST,LST =  4  1  1  1 NREC =         1 INTLOC =   22
 II,JST,KST,LST =  5  1  1  1 NREC =         1 INTLOC =   56
 II,JST,KST,LST =  6  1  1  1 NREC =         1 INTLOC =  125
 II,JST,KST,LST =  7  1  1  1 NREC =         1 INTLOC =  329
 II,JST,KST,LST =  8  1  1  1 NREC =         1 INTLOC =  776
 II,JST,KST,LST =  9  1  1  1 NREC =         1 INTLOC = 2864
 II,JST,KST,LST = 10  1  1  1 NREC =         1 INTLOC = 2864
 II,JST,KST,LST = 11  1  1  1 NREC =         1 INTLOC = 2864
 II,JST,KST,LST = 12  1  1  1 NREC =         1 INTLOC = 2864
 II,JST,KST,LST = 13  1  1  1 NREC =         1 INTLOC = 2864
 II,JST,KST,LST = 14  1  1  1 NREC =         1 INTLOC = 2864
 II,JST,KST,LST = 15  1  1  1 NREC =         1 INTLOC = 2864
 II,JST,KST,LST = 16  1  1  1 NREC =         1 INTLOC = 5124
 II,JST,KST,LST = 17  1  1  1 NREC =         1 INTLOC = 8306
 II,JST,KST,LST = 18  1  1  1 NREC =         1 INTLOC =12740
 II,JST,KST,LST = 19  1  1  1 NREC =         3 INTLOC =  478
 II,JST,KST,LST = 20  1  1  1 NREC =         5 INTLOC = 1621
 TOTAL NUMBER OF NONZERO TWO-ELECTRON INTEGRALS =              177055
         12 INTEGRAL RECORDS WERE STORED ON DISK FILE  8.
  ...... END OF TWO-ELECTRON INTEGRALS .....
 STEP CPU TIME =     0.16 TOTAL CPU TIME =        0.2 (    0.0 MIN)
 TOTAL WALL CLOCK TIME=        0.2 SECONDS, CPU UTILIZATION IS  94.74%

          --------------------------
               R-PBE SCF CALCULATION
          --------------------------

     NUCLEAR ENERGY =       117.2828705054
     MAXIT =   30     NPUNCH=    2
     EXTRAP=T  DAMP=F  SHIFT=F  RSTRCT=F  DIIS=T  DEM=F  SOSCF=F
         DENSITY MATRIX CONVERGENCE THRESHOLD=  1.00E-05
     COARSE -> FINE DFT GRID SWITCH THRESHOLD=  3.00E-04 (SWITCH IN $DFT)
                   HF -> DFT SWITCH THRESHOLD=  5.00E-03 (SWOFF IN $DFT)
     MEMORY REQUIRED FOR RHF ITERS=    183108 WORDS.

 DFT CODE IS SWITCHING FROM THE FINE GRID NRAD= 96,  NLEB=  302
                      TO THE COARSE GRID NRAD0= 24, NLEB0=  110

     EXCHANGE FUNCTIONAL   =PBE       
     CORRELATION FUNCTIONAL=PBE       
     DFT THRESHOLD         =.460E-07
     GRID CHANGE THRESHOLD =.300E-03
 FOR AN EULER-MACLAURIN QUADRATURE USING  96 RADIAL POINTS:
 SMALLEST GAUSSIAN PRIMITIVE EXPONENT=        0.1313100000 OF TYPE -P-
 ON ATOM NUMBER   1 HAS RADIAL NORMALIZATION=  1.000000
  LARGEST GAUSSIAN PRIMITIVE EXPONENT=    55510.0000000000 OF TYPE -S-
 ON ATOM NUMBER   1 HAS RADIAL NORMALIZATION=  0.999999
 DFT IS SWITCHED OFF, PERFORMING PURE SCF UNTIL SWOFF THRESHOLD IS REACHED.

 ITER EX DEM     TOTAL ENERGY        E CHANGE  DENSITY CHANGE    DIIS ERROR
   1  0  0     -545.7046702425  -545.7046702425   0.346627190   1.507751309
          * * *   INITIATING DIIS PROCEDURE   * * *
   2  1  0     -546.6218332225    -0.9171629800   0.480555975   0.255002181
   3  2  0     -546.7476978687    -0.1258646461   0.288450021   0.142630684
   4  3  0     -546.8226781230    -0.0749802543   0.461947514   0.056563401
   5  4  0     -546.8621136614    -0.0394355384   0.419870980   0.049810543
   6  5  0     -546.8919007553    -0.0297870939   0.354228456   0.036235884
   7  6  0     -546.9131116973    -0.0212109420   0.138438937   0.015951881
   8  7  0     -546.9168967657    -0.0037850685   0.018159003   0.005209633
   9  8  0     -546.9169032294    -0.0000064636   0.019955031   0.002646971
  10  9  0     -546.9169677772    -0.0000645478   0.002007392   0.000564928
 CONVERGED TO SWOFF, SO DFT CALCULATION IS NOW SWITCHED ON.
          * * *   INITIATING DIIS PROCEDURE   * * *
  11 10  0     -548.0071814792    -1.0902137020   0.172450093   0.119065973
  12 11  0     -548.0206207907    -0.0134393114   0.177859761   0.053735921
  13 12  0     -548.0155769852     0.0050438055   0.086653551   0.068453295
  14 13  0     -548.0321604207    -0.0165834355   0.025298347   0.012715684
  15 14  0     -548.0324831016    -0.0003226810   0.017088896   0.002320585
  16 15  0     -548.0325124996    -0.0000293980   0.005137110   0.000751997
  17 16  0     -548.0325150810    -0.0000025814   0.000160489   0.000045754
 DFT CODE IS SWITCHING BACK TO THE FINE GRID
          * * *   INITIATING DIIS PROCEDURE   * * *
  18 17  0     -548.0474129005    -0.0148978194   0.019384878   0.011154387
  19 18  0     -548.0476539790    -0.0002410786   0.017414920   0.003434127
  20 19  0     -548.0476325842     0.0000213949   0.008698068   0.004328137
  21 20  0     -548.0477008098    -0.0000682256   0.001668987   0.000745593
  22 21  0     -548.0477020463    -0.0000012365   0.001058257   0.000271454
  23 22  0     -548.0477024666    -0.0000004204   0.000258177   0.000034086
  24 23  0     -548.0477024700    -0.0000000034   0.000033623   0.000004527
  25 24  0     -548.0477024701     0.0000000000   0.000003045   0.000000589
  26 25  0     -548.0477024701     0.0000000000   0.000000075   0.000000035

          -----------------
          DENSITY CONVERGED
          -----------------
     TIME TO FORM FOCK OPERATORS=       4.9 SECONDS (       0.2 SEC/ITER)
     TIME TO SOLVE SCF EQUATIONS=       0.0 SECONDS (       0.0 SEC/ITER)

 FINAL R-PBE ENERGY IS     -548.0477024701 AFTER  26 ITERATIONS
 DFT EXCHANGE + CORRELATION ENERGY =       -42.7765703623
 TOTAL ELECTRON NUMBER             =        32.0000010474

          ------------
          EIGENVECTORS
          ------------

                      1          2          3          4          5
                  -88.2015   -18.7927   -18.7927    -7.8212    -5.8451
                     A1         B1         A1         A1         B1  
    1  S  1  S    1.002999   0.000000  -0.000061  -0.273972   0.000000
    2  S  1  S   -0.010224   0.000000   0.000618   1.039463   0.000000
    3  S  1  S    0.002105   0.000000  -0.000044   0.041920   0.000000
    4  S  1  S   -0.000159   0.000000   0.007511  -0.007018   0.000000
    5  S  1  X    0.000000  -0.000129   0.000000   0.000000   0.995887
    6  S  1  Y    0.000000   0.000000   0.000000   0.000000   0.000000
    7  S  1  Z    0.000037   0.000000   0.000016   0.008028   0.000000
    8  S  1  X    0.000000  -0.001588   0.000000   0.000000   0.009847
    9  S  1  Y    0.000000   0.000000   0.000000   0.000000   0.000000
   10  S  1  Z    0.000044   0.000000   0.000097   0.000969   0.000000
   11  S  1  X    0.000000  -0.009825   0.000000   0.000000  -0.000948
   12  S  1  Y    0.000000   0.000000   0.000000   0.000000   0.000000
   13  S  1  Z    0.000020   0.000000   0.000815  -0.000136   0.000000
   14  S  1 XX    0.000470   0.000000  -0.001779   0.003661   0.000000
   15  S  1 YY   -0.000236   0.000000   0.000874  -0.001827   0.000000
   16  S  1 ZZ   -0.000233   0.000000   0.000905  -0.001834   0.000000
   17  S  1 XY    0.000000   0.000000   0.000000   0.000000   0.000000
   18  S  1 XZ    0.000000   0.000173   0.000000   0.000000   0.000899
   19  S  1 YZ    0.000000   0.000000   0.000000   0.000000   0.000000
   20  O  2  S    0.000021   0.703302   0.703183  -0.000481   0.001332
   21  O  2  S    0.000024   0.027213   0.026272  -0.000041  -0.001489
   22  O  2  S   -0.000560  -0.016988  -0.011495  -0.002894  -0.000931
   23  O  2  X   -0.000195   0.000821   0.001636  -0.000487  -0.002808
   24  O  2  Y    0.000000   0.000000   0.000000   0.000000   0.000000
   25  O  2  Z    0.000022  -0.000034  -0.000008   0.000066   0.000306
   26  O  2  X   -0.000421  -0.002951  -0.003141  -0.002830  -0.000155
   27  O  2  Y    0.000000   0.000000   0.000000   0.000000   0.000000
   28  O  2  Z    0.000045   0.000661  -0.000183   0.000336   0.000227
   29  O  2 XX   -0.000197  -0.000171   0.000022   0.000142  -0.001570
   30  O  2 YY    0.000101   0.000100  -0.000020  -0.000065   0.000811
   31  O  2 ZZ    0.000096   0.000071  -0.000002  -0.000077   0.000759
   32  O  2 XY    0.000000   0.000000   0.000000   0.000000   0.000000
   33  O  2 XZ    0.000045   0.000155  -0.000131   0.000053   0.000423
   34  O  2 YZ    0.000000   0.000000   0.000000   0.000000   0.000000
   35  O  3  S    0.000021  -0.703302   0.703183  -0.000481  -0.001332
   36  O  3  S    0.000024  -0.027213   0.026272  -0.000041   0.001489
   37  O  3  S   -0.000560   0.016988  -0.011495  -0.002894   0.000931
   38  O  3  X    0.000195   0.000821  -0.001636   0.000487  -0.002808
   39  O  3  Y    0.000000   0.000000   0.000000   0.000000   0.000000
   40  O  3  Z    0.000022   0.000034  -0.000008   0.000066  -0.000306
   41  O  3  X    0.000421  -0.002951   0.003141   0.002830  -0.000155
   42  O  3  Y    0.000000   0.000000   0.000000   0.000000   0.000000
   43  O  3  Z    0.000045  -0.000661  -0.000183   0.000336  -0.000227
   44  O  3 XX   -0.000197   0.000171   0.000022   0.000142   0.001570
   45  O  3 YY    0.000101  -0.000100  -0.000020  -0.000065  -0.000811
   46  O  3 ZZ    0.000096  -0.000071  -0.000002  -0.000077  -0.000759
   47  O  3 XY    0.000000   0.000000   0.000000   0.000000   0.000000
   48  O  3 XZ   -0.000045   0.000155   0.000131  -0.000053   0.000423
   49  O  3 YZ    0.000000   0.000000   0.000000   0.000000   0.000000

                      6          7          8          9         10
                   -5.8386    -5.8375    -1.1177    -1.0446    -0.5462
                     B2         A1         A1         B1         A1  
    1  S  1  S    0.000000   0.002316   0.057223   0.000000  -0.054452
    2  S  1  S    0.000000  -0.008643  -0.171842   0.000000   0.146045
    3  S  1  S    0.000000   0.000432   0.317925   0.000000  -0.352776
    4  S  1  S    0.000000  -0.000748   0.135880   0.000000  -0.240483
    5  S  1  X    0.000000   0.000000   0.000000  -0.180332   0.000000
    6  S  1  Y    0.996984   0.000000   0.000000   0.000000   0.000000
    7  S  1  Z    0.000000   0.996960  -0.019112   0.000000   0.012522
    8  S  1  X    0.000000   0.000000   0.000000   0.315205   0.000000
    9  S  1  Y    0.008571   0.000000   0.000000   0.000000   0.000000
   10  S  1  Z    0.000000   0.008517   0.037068   0.000000  -0.032290
   11  S  1  X    0.000000   0.000000   0.000000  -0.008650   0.000000
   12  S  1  Y   -0.000238   0.000000   0.000000   0.000000   0.000000
   13  S  1  Z    0.000000  -0.000244  -0.000272   0.000000  -0.001661
   14  S  1 XX    0.000000  -0.000522   0.100244   0.000000   0.026457
   15  S  1 YY    0.000000  -0.000245  -0.050733   0.000000  -0.013192
   16  S  1 ZZ    0.000000   0.000767  -0.049511   0.000000  -0.013265
   17  S  1 XY    0.000000   0.000000   0.000000   0.000000   0.000000
   18  S  1 XZ    0.000000   0.000000   0.000000   0.023598   0.000000
   19  S  1 YZ    0.000584   0.000000   0.000000   0.000000   0.000000
   20  O  2  S    0.000000  -0.000109  -0.126008   0.143668  -0.103919
   21  O  2  S    0.000000   0.000153   0.243155  -0.283521   0.213070
   22  O  2  S    0.000000   0.000385   0.229550  -0.306793   0.368244
   23  O  2  X    0.000000   0.000341   0.127907  -0.133406  -0.268652
   24  O  2  Y    0.000328   0.000000   0.000000   0.000000   0.000000
   25  O  2  Z    0.000000   0.000294  -0.005232   0.007706   0.010683
   26  O  2  X    0.000000   0.000143   0.030673  -0.027842  -0.140041
   27  O  2  Y    0.000085   0.000000   0.000000   0.000000   0.000000
   28  O  2  Z    0.000000   0.000065   0.002695   0.002934   0.004086
   29  O  2 XX    0.000000   0.000196   0.012282  -0.014143  -0.016206
   30  O  2 YY    0.000000  -0.000036  -0.005822   0.007110   0.008271
   31  O  2 ZZ    0.000000  -0.000160  -0.006459   0.007033   0.007935
   32  O  2 XY    0.000501   0.000000   0.000000   0.000000   0.000000
   33  O  2 XZ    0.000000   0.000468   0.001527   0.002767   0.001525
   34  O  2 YZ   -0.000074   0.000000   0.000000   0.000000   0.000000
   35  O  3  S    0.000000  -0.000109  -0.126008  -0.143668  -0.103919
   36  O  3  S    0.000000   0.000153   0.243155   0.283521   0.213070
   37  O  3  S    0.000000   0.000385   0.229550   0.306793   0.368244
   38  O  3  X    0.000000  -0.000341  -0.127907  -0.133406   0.268652
   39  O  3  Y    0.000328   0.000000   0.000000   0.000000   0.000000
   40  O  3  Z    0.000000   0.000294  -0.005232  -0.007706   0.010683
   41  O  3  X    0.000000  -0.000143  -0.030673  -0.027842   0.140041
   42  O  3  Y    0.000085   0.000000   0.000000   0.000000   0.000000
   43  O  3  Z    0.000000   0.000065   0.002695  -0.002934   0.004086
   44  O  3 XX    0.000000   0.000196   0.012282   0.014143  -0.016206
   45  O  3 YY    0.000000  -0.000036  -0.005822  -0.007110   0.008271
   46  O  3 ZZ    0.000000  -0.000160  -0.006459  -0.007033   0.007935
   47  O  3 XY   -0.000501   0.000000   0.000000   0.000000   0.000000
   48  O  3 XZ    0.000000  -0.000468  -0.001527   0.002767  -0.001525
   49  O  3 YZ   -0.000074   0.000000   0.000000   0.000000   0.000000

                     11         12         13         14         15
                   -0.4804    -0.4784    -0.4557    -0.3801    -0.3783
                     B2         A1         B1         A2         B1  
    1  S  1  S    0.000000  -0.005825   0.000000   0.000000   0.000000
    2  S  1  S    0.000000   0.015150   0.000000   0.000000   0.000000
    3  S  1  S    0.000000  -0.038603   0.000000   0.000000   0.000000
    4  S  1  S    0.000000  -0.039359   0.000000   0.000000   0.000000
    5  S  1  X    0.000000   0.000000   0.158271   0.000000  -0.006913
    6  S  1  Y   -0.199270   0.000000   0.000000   0.000000   0.000000
    7  S  1  Z    0.000000  -0.197257   0.000000   0.000000   0.000000
    8  S  1  X    0.000000   0.000000  -0.354474   0.000000   0.012118
    9  S  1  Y    0.450279   0.000000   0.000000   0.000000   0.000000
   10  S  1  Z    0.000000   0.444855   0.000000   0.000000   0.000000
   11  S  1  X    0.000000   0.000000   0.058461   0.000000   0.007487
   12  S  1  Y    0.182712   0.000000   0.000000   0.000000   0.000000
   13  S  1  Z    0.000000   0.181208   0.000000   0.000000   0.000000
   14  S  1 XX    0.000000  -0.029691   0.000000   0.000000   0.000000
   15  S  1 YY    0.000000  -0.003197   0.000000   0.000000   0.000000
   16  S  1 ZZ    0.000000   0.032888   0.000000   0.000000   0.000000
   17  S  1 XY    0.000000   0.000000   0.000000  -0.171738   0.000000
   18  S  1 XZ    0.000000   0.000000  -0.014429   0.000000  -0.170578
   19  S  1 YZ    0.020856   0.000000   0.000000   0.000000   0.000000
   20  O  2  S    0.000000  -0.000540   0.066950   0.000000   0.000955
   21  O  2  S    0.000000   0.001278  -0.141275   0.000000  -0.004247
   22  O  2  S    0.000000   0.010717  -0.242213   0.000000  -0.004489
   23  O  2  X    0.000000   0.023465   0.402511   0.000000   0.050253
   24  O  2  Y    0.335752   0.000000   0.000000   0.455881   0.000000
   25  O  2  Z    0.000000   0.335575  -0.043028   0.000000   0.453402
   26  O  2  X    0.000000   0.019662   0.204388   0.000000   0.032225
   27  O  2  Y    0.187422   0.000000   0.000000   0.297159   0.000000
   28  O  2  Z    0.000000   0.186933  -0.027152   0.000000   0.295851
   29  O  2 XX    0.000000   0.005317   0.018667   0.000000   0.000924
   30  O  2 YY    0.000000  -0.001487  -0.009607   0.000000  -0.000227
   31  O  2 ZZ    0.000000  -0.003830  -0.009060   0.000000  -0.000697
   32  O  2 XY    0.028337   0.000000   0.000000   0.017983   0.000000
   33  O  2 XZ    0.000000   0.027418  -0.004228   0.000000   0.018323
   34  O  2 YZ   -0.001412   0.000000   0.000000  -0.000239   0.000000
   35  O  3  S    0.000000  -0.000540  -0.066950   0.000000  -0.000955
   36  O  3  S    0.000000   0.001278   0.141275   0.000000   0.004247
   37  O  3  S    0.000000   0.010717   0.242213   0.000000   0.004489
   38  O  3  X    0.000000  -0.023465   0.402511   0.000000   0.050253
   39  O  3  Y    0.335752   0.000000   0.000000  -0.455881   0.000000
   40  O  3  Z    0.000000   0.335575   0.043028   0.000000  -0.453402
   41  O  3  X    0.000000  -0.019662   0.204388   0.000000   0.032225
   42  O  3  Y    0.187422   0.000000   0.000000  -0.297159   0.000000
   43  O  3  Z    0.000000   0.186933   0.027152   0.000000  -0.295851
   44  O  3 XX    0.000000   0.005317  -0.018667   0.000000  -0.000924
   45  O  3 YY    0.000000  -0.001487   0.009607   0.000000   0.000227
   46  O  3 ZZ    0.000000  -0.003830   0.009060   0.000000   0.000697
   47  O  3 XY   -0.028337   0.000000   0.000000   0.017983   0.000000
   48  O  3 XZ    0.000000  -0.027418  -0.004228   0.000000   0.018323
   49  O  3 YZ   -0.001412   0.000000   0.000000   0.000239   0.000000

                     16         17         18         19         20
                   -0.1825    -0.0874    -0.0788     0.2277     0.3549
                     A1         B2         A1         B1         A1  
    1  S  1  S    0.028868   0.000000   0.004870   0.000000  -0.014423
    2  S  1  S   -0.170455   0.000000  -0.041432   0.000000  -0.049493
    3  S  1  S    0.081523   0.000000  -0.000245   0.000000  -0.214762
    4  S  1  S    1.129809   0.000000   0.348381   0.000000   0.558914
    5  S  1  X    0.000000   0.000000   0.000000  -0.030571   0.000000
    6  S  1  Y    0.000000  -0.212794   0.000000   0.000000   0.000000
    7  S  1  Z    0.053531   0.000000  -0.205981   0.000000   0.282013
    8  S  1  X    0.000000   0.000000   0.000000   0.117649   0.000000
    9  S  1  Y    0.000000   0.555256   0.000000   0.000000   0.000000
   10  S  1  Z   -0.127663   0.000000   0.540493   0.000000  -1.079122
   11  S  1  X    0.000000   0.000000   0.000000   2.201153   0.000000
   12  S  1  Y    0.000000   0.635220   0.000000   0.000000   0.000000
   13  S  1  Z   -0.072389   0.000000   0.643935   0.000000   1.251588
   14  S  1 XX   -0.278911   0.000000  -0.073805   0.000000   0.147492
   15  S  1 YY    0.142141   0.000000   0.041193   0.000000  -0.012542
   16  S  1 ZZ    0.136770   0.000000   0.032612   0.000000  -0.134949
   17  S  1 XY    0.000000   0.000000   0.000000   0.000000   0.000000
   18  S  1 XZ    0.000000   0.000000   0.000000  -0.029325   0.000000
   19  S  1 YZ    0.000000  -0.003824   0.000000   0.000000   0.000000
   20  O  2  S    0.042286   0.000000   0.016012  -0.083235   0.006986
   21  O  2  S   -0.081513   0.000000  -0.030753   0.107531   0.005235
   22  O  2  S   -0.270971   0.000000  -0.132948   1.297869  -0.238094
   23  O  2  X   -0.337313   0.000000  -0.119253  -0.008695   0.055899
   24  O  2  Y    0.000000  -0.397229   0.000000   0.000000   0.000000
   25  O  2  Z    0.113836   0.000000  -0.378505  -0.042933  -0.052665
   26  O  2  X   -0.273916   0.000000  -0.117896   0.319744  -0.129530
   27  O  2  Y    0.000000  -0.384895   0.000000   0.000000   0.000000
   28  O  2  Z    0.094732   0.000000  -0.369478  -0.085359  -0.065597
   29  O  2 XX   -0.008931   0.000000  -0.002651   0.027126  -0.026641
   30  O  2 YY    0.004202   0.000000   0.001985  -0.013385   0.013128
   31  O  2 ZZ    0.004729   0.000000   0.000666  -0.013741   0.013512
   32  O  2 XY    0.000000  -0.001069   0.000000   0.000000   0.000000
   33  O  2 XZ   -0.000675   0.000000  -0.000868  -0.001901  -0.033402
   34  O  2 YZ    0.000000  -0.000770   0.000000   0.000000   0.000000
   35  O  3  S    0.042286   0.000000   0.016012   0.083235   0.006986
   36  O  3  S   -0.081513   0.000000  -0.030753  -0.107531   0.005235
   37  O  3  S   -0.270971   0.000000  -0.132948  -1.297869  -0.238094
   38  O  3  X    0.337313   0.000000   0.119253  -0.008695  -0.055899
   39  O  3  Y    0.000000  -0.397229   0.000000   0.000000   0.000000
   40  O  3  Z    0.113836   0.000000  -0.378505   0.042933  -0.052665
   41  O  3  X    0.273916   0.000000   0.117896   0.319744   0.129530
   42  O  3  Y    0.000000  -0.384895   0.000000   0.000000   0.000000
   43  O  3  Z    0.094732   0.000000  -0.369478   0.085359  -0.065597
   44  O  3 XX   -0.008931   0.000000  -0.002651  -0.027126  -0.026641
   45  O  3 YY    0.004202   0.000000   0.001985   0.013385   0.013128
   46  O  3 ZZ    0.004729   0.000000   0.000666   0.013741   0.013512
   47  O  3 XY    0.000000   0.001069   0.000000   0.000000   0.000000
   48  O  3 XZ    0.000675   0.000000   0.000868  -0.001901   0.033402
   49  O  3 YZ    0.000000  -0.000770   0.000000   0.000000   0.000000

                     21         22         23         24         25
                    0.3558     0.4241     0.5137     0.5138     0.6177
                     B2         A1         B2         A1         A1  
    1  S  1  S    0.000000  -0.098911   0.000000   0.002523   0.074437
    2  S  1  S    0.000000  -0.289564   0.000000   0.005617   0.321822
    3  S  1  S    0.000000  -1.423603   0.000000   0.034591   1.236432
    4  S  1  S    0.000000   2.708749   0.000000  -0.021055   0.729477
    5  S  1  X    0.000000   0.000000   0.000000   0.000000   0.000000
    6  S  1  Y    0.288075   0.000000   0.023816   0.000000   0.000000
    7  S  1  Z    0.000000  -0.055956   0.000000   0.023934  -0.020608
    8  S  1  X    0.000000   0.000000   0.000000   0.000000   0.000000
    9  S  1  Y   -1.108247   0.000000  -0.091512   0.000000   0.000000
   10  S  1  Z    0.000000   0.237733   0.000000  -0.091876   0.117966
   11  S  1  X    0.000000   0.000000   0.000000   0.000000   0.000000
   12  S  1  Y    1.262646   0.000000   0.100758   0.000000   0.000000
   13  S  1  Z    0.000000  -0.178212   0.000000   0.102328   0.012167
   14  S  1 XX    0.000000   0.439405   0.000000  -0.000020   0.464620
   15  S  1 YY    0.000000  -0.244991   0.000000  -0.851868  -0.228879
   16  S  1 ZZ    0.000000  -0.194413   0.000000   0.851888  -0.235742
   17  S  1 XY    0.000000   0.000000   0.000000   0.000000   0.000000
   18  S  1 XZ    0.000000   0.000000   0.000000   0.000000   0.000000
   19  S  1 YZ   -0.073752   0.000000   0.983893   0.000000   0.000000
   20  O  2  S    0.000000   0.024589   0.000000   0.000638   0.058192
   21  O  2  S    0.000000  -0.001759   0.000000  -0.002775  -0.100989
   22  O  2  S    0.000000  -0.797738   0.000000  -0.003548  -0.700284
   23  O  2  X    0.000000   0.246731   0.000000  -0.008635   0.236634
   24  O  2  Y   -0.050116   0.000000  -0.050600   0.000000   0.000000
   25  O  2  Z    0.000000  -0.014602   0.000000  -0.050165  -0.001940
   26  O  2  X    0.000000  -0.527647   0.000000  -0.005072  -1.220035
   27  O  2  Y   -0.082846   0.000000  -0.004967   0.000000   0.000000
   28  O  2  Z    0.000000   0.071712   0.000000  -0.004621   0.098603
   29  O  2 XX    0.000000  -0.081400   0.000000   0.000369  -0.004672
   30  O  2 YY    0.000000   0.040885   0.000000  -0.043833   0.002862
   31  O  2 ZZ    0.000000   0.040515   0.000000   0.043464   0.001810
   32  O  2 XY   -0.038719   0.000000   0.003352   0.000000   0.000000
   33  O  2 XZ    0.000000   0.022743   0.000000   0.003324   0.004269
   34  O  2 YZ    0.000409   0.000000   0.050407   0.000000   0.000000
   35  O  3  S    0.000000   0.024589   0.000000   0.000638   0.058192
   36  O  3  S    0.000000  -0.001759   0.000000  -0.002775  -0.100989
   37  O  3  S    0.000000  -0.797738   0.000000  -0.003548  -0.700284
   38  O  3  X    0.000000  -0.246731   0.000000   0.008635  -0.236634
   39  O  3  Y   -0.050116   0.000000  -0.050600   0.000000   0.000000
   40  O  3  Z    0.000000  -0.014602   0.000000  -0.050165  -0.001940
   41  O  3  X    0.000000   0.527647   0.000000   0.005072   1.220035
   42  O  3  Y   -0.082846   0.000000  -0.004967   0.000000   0.000000
   43  O  3  Z    0.000000   0.071712   0.000000  -0.004621   0.098603
   44  O  3 XX    0.000000  -0.081400   0.000000   0.000369  -0.004672
   45  O  3 YY    0.000000   0.040885   0.000000  -0.043833   0.002862
   46  O  3 ZZ    0.000000   0.040515   0.000000   0.043464   0.001810
   47  O  3 XY    0.038719   0.000000  -0.003352   0.000000   0.000000
   48  O  3 XZ    0.000000  -0.022743   0.000000  -0.003324  -0.004269
   49  O  3 YZ    0.000409   0.000000   0.050407   0.000000   0.000000

                     26         27         28         29         30
                    0.6532     0.6729     0.6906     0.7119     0.7158
                     B1         B1         A2         A2         B1  
    1  S  1  S    0.000000   0.000000   0.000000   0.000000   0.000000
    2  S  1  S    0.000000   0.000000   0.000000   0.000000   0.000000
    3  S  1  S    0.000000   0.000000   0.000000   0.000000   0.000000
    4  S  1  S    0.000000   0.000000   0.000000   0.000000   0.000000
    5  S  1  X   -0.155073  -0.212899   0.000000   0.000000  -0.020108
    6  S  1  Y    0.000000   0.000000   0.000000   0.000000   0.000000
    7  S  1  Z    0.000000   0.000000   0.000000   0.000000   0.000000
    8  S  1  X    0.977006   0.898544   0.000000   0.000000   0.107857
    9  S  1  Y    0.000000   0.000000   0.000000   0.000000   0.000000
   10  S  1  Z    0.000000   0.000000   0.000000   0.000000   0.000000
   11  S  1  X   -0.084176  -0.408532   0.000000   0.000000  -0.111601
   12  S  1  Y    0.000000   0.000000   0.000000   0.000000   0.000000
   13  S  1  Z    0.000000   0.000000   0.000000   0.000000   0.000000
   14  S  1 XX    0.000000   0.000000   0.000000   0.000000   0.000000
   15  S  1 YY    0.000000   0.000000   0.000000   0.000000   0.000000
   16  S  1 ZZ    0.000000   0.000000   0.000000   0.000000   0.000000
   17  S  1 XY    0.000000   0.000000   1.010355   0.280802   0.000000
   18  S  1 XZ    0.428261  -0.841547   0.000000   0.000000   0.188523
   19  S  1 YZ    0.000000   0.000000   0.000000   0.000000   0.000000
   20  O  2  S   -0.039584  -0.024590   0.000000   0.000000   0.000519
   21  O  2  S    0.024287   0.077747   0.000000   0.000000  -0.033424
   22  O  2  S    0.447617   0.045576   0.000000   0.000000   0.033160
   23  O  2  X   -0.284073   0.085831   0.000000   0.000000  -0.046055
   24  O  2  Y    0.000000   0.000000   0.304048  -0.592949   0.000000
   25  O  2  Z    0.156116  -0.195142   0.000000   0.000000  -0.614901
   26  O  2  X    1.074986   0.354623   0.000000   0.000000   0.145473
   27  O  2  Y    0.000000   0.000000   0.181249   0.825234   0.000000
   28  O  2  Z   -0.030231  -0.263430   0.000000   0.000000   0.796778
   29  O  2 XX   -0.032449  -0.032898   0.000000   0.000000  -0.006203
   30  O  2 YY    0.013075   0.025373   0.000000   0.000000   0.002165
   31  O  2 ZZ    0.019373   0.007525   0.000000   0.000000   0.004037
   32  O  2 XY    0.000000   0.000000  -0.079468  -0.021922   0.000000
   33  O  2 XZ   -0.019614   0.071699   0.000000   0.000000  -0.013610
   34  O  2 YZ    0.000000   0.000000   0.012211   0.002321   0.000000
   35  O  3  S    0.039584   0.024590   0.000000   0.000000  -0.000519
   36  O  3  S   -0.024287  -0.077747   0.000000   0.000000   0.033424
   37  O  3  S   -0.447617  -0.045576   0.000000   0.000000  -0.033160
   38  O  3  X   -0.284073   0.085831   0.000000   0.000000  -0.046055
   39  O  3  Y    0.000000   0.000000  -0.304048   0.592949   0.000000
   40  O  3  Z   -0.156116   0.195142   0.000000   0.000000   0.614901
   41  O  3  X    1.074986   0.354623   0.000000   0.000000   0.145473
   42  O  3  Y    0.000000   0.000000  -0.181249  -0.825234   0.000000
   43  O  3  Z    0.030231   0.263430   0.000000   0.000000  -0.796778
   44  O  3 XX    0.032449   0.032898   0.000000   0.000000   0.006203
   45  O  3 YY   -0.013075  -0.025373   0.000000   0.000000  -0.002165
   46  O  3 ZZ   -0.019373  -0.007525   0.000000   0.000000  -0.004037
   47  O  3 XY    0.000000   0.000000  -0.079468  -0.021922   0.000000
   48  O  3 XZ   -0.019614   0.071699   0.000000   0.000000  -0.013610
   49  O  3 YZ    0.000000   0.000000  -0.012211  -0.002321   0.000000

                     31         32         33         34         35
                    0.8822     0.8850     0.8896     1.4580     1.7719
                     A1         B2         B1         A1         A1  
    1  S  1  S    0.003740   0.000000   0.000000   0.011042  -0.008367
    2  S  1  S    0.017469   0.000000   0.000000  -0.106953   0.177785
    3  S  1  S    0.064862   0.000000   0.000000   0.010798   0.136813
    4  S  1  S   -0.007467   0.000000   0.000000   2.322546   0.394600
    5  S  1  X    0.000000   0.000000  -0.296906   0.000000   0.000000
    6  S  1  Y    0.000000  -0.030817   0.000000   0.000000   0.000000
    7  S  1  Z   -0.031742   0.000000   0.000000  -0.021258   0.034597
    8  S  1  X    0.000000   0.000000   0.985567   0.000000   0.000000
    9  S  1  Y    0.000000   0.074702   0.000000   0.000000   0.000000
   10  S  1  Z    0.080519   0.000000   0.000000   0.115085  -0.115115
   11  S  1  X    0.000000   0.000000  -0.140200   0.000000   0.000000
   12  S  1  Y    0.000000  -0.919479   0.000000   0.000000   0.000000
   13  S  1  Z   -0.915717   0.000000   0.000000   0.176848   0.078450
   14  S  1 XX    0.068140   0.000000   0.000000   1.046794  -0.896102
   15  S  1 YY    0.016026   0.000000   0.000000  -0.532375   0.455250
   16  S  1 ZZ   -0.084166   0.000000   0.000000  -0.514420   0.440852
   17  S  1 XY    0.000000   0.000000   0.000000   0.000000   0.000000
   18  S  1 XZ    0.000000   0.000000   0.428660   0.000000   0.000000
   19  S  1 YZ    0.000000  -0.057894   0.000000   0.000000   0.000000
   20  O  2  S   -0.002463   0.000000  -0.035605   0.016434  -0.023612
   21  O  2  S    0.043523   0.000000   0.240835   0.785563   1.014510
   22  O  2  S   -0.043386   0.000000   0.122283  -2.066636  -0.818165
   23  O  2  X   -0.079655   0.000000   0.653746  -0.452328   0.511004
   24  O  2  Y    0.000000  -0.628597   0.000000   0.000000   0.000000
   25  O  2  Z   -0.621127   0.000000   0.041283   0.101798  -0.073934
   26  O  2  X    0.061395   0.000000  -0.188878  -0.570250  -0.458598
   27  O  2  Y    0.000000   1.058599   0.000000   0.000000   0.000000
   28  O  2  Z    1.053191   0.000000   0.090818  -0.040461   0.015263
   29  O  2 XX   -0.004437   0.000000  -0.060701   0.131174   0.029536
   30  O  2 YY    0.002355   0.000000   0.024156  -0.070762   0.006494
   31  O  2 ZZ    0.002082   0.000000   0.036545  -0.060412  -0.036030
   32  O  2 XY    0.000000  -0.044452   0.000000   0.000000   0.000000
   33  O  2 XZ   -0.043353   0.000000  -0.041386  -0.035246   0.153325
   34  O  2 YZ    0.000000  -0.000149   0.000000   0.000000   0.000000
   35  O  3  S   -0.002463   0.000000   0.035605   0.016434  -0.023612
   36  O  3  S    0.043523   0.000000  -0.240835   0.785563   1.014510
   37  O  3  S   -0.043386   0.000000  -0.122283  -2.066636  -0.818165
   38  O  3  X    0.079655   0.000000   0.653746   0.452328  -0.511004
   39  O  3  Y    0.000000  -0.628597   0.000000   0.000000   0.000000
   40  O  3  Z   -0.621127   0.000000  -0.041283   0.101798  -0.073934
   41  O  3  X   -0.061395   0.000000  -0.188878   0.570250   0.458598
   42  O  3  Y    0.000000   1.058599   0.000000   0.000000   0.000000
   43  O  3  Z    1.053191   0.000000  -0.090818  -0.040461   0.015263
   44  O  3 XX   -0.004437   0.000000   0.060701   0.131174   0.029536
   45  O  3 YY    0.002355   0.000000  -0.024156  -0.070762   0.006494
   46  O  3 ZZ    0.002082   0.000000  -0.036545  -0.060412  -0.036030
   47  O  3 XY    0.000000   0.044452   0.000000   0.000000   0.000000
   48  O  3 XZ    0.043353   0.000000  -0.041386   0.035246  -0.153325
   49  O  3 YZ    0.000000  -0.000149   0.000000   0.000000   0.000000

                     36         37         38         39         40
                    1.8577     2.0176     2.0176     2.0857     2.0871
                     B1         A2         B1         B2         A1  
    1  S  1  S    0.000000   0.000000   0.000000   0.000000   0.000285
    2  S  1  S    0.000000   0.000000   0.000000   0.000000   0.013632
    3  S  1  S    0.000000   0.000000   0.000000   0.000000   0.021726
    4  S  1  S    0.000000   0.000000   0.000000   0.000000   0.000847
    5  S  1  X   -0.022638   0.000000  -0.000033   0.000000   0.000000
    6  S  1  Y    0.000000   0.000000   0.000000  -0.018714   0.000000
    7  S  1  Z    0.000000   0.000000   0.000000   0.000000  -0.010637
    8  S  1  X    0.364318   0.000000  -0.000357   0.000000   0.000000
    9  S  1  Y    0.000000   0.000000   0.000000   0.080157   0.000000
   10  S  1  Z    0.000000   0.000000   0.000000   0.000000   0.047620
   11  S  1  X    1.938054   0.000000   0.012012   0.000000   0.000000
   12  S  1  Y    0.000000   0.000000   0.000000   0.005849   0.000000
   13  S  1  Z    0.000000   0.000000   0.000000   0.000000   0.001045
   14  S  1 XX    0.000000   0.000000   0.000000   0.000000  -0.054593
   15  S  1 YY    0.000000   0.000000   0.000000   0.000000   0.205867
   16  S  1 ZZ    0.000000   0.000000   0.000000   0.000000  -0.151274
   17  S  1 XY    0.000000   0.012426   0.000000   0.000000   0.000000
   18  S  1 XZ    0.063243   0.000000  -0.012206   0.000000   0.000000
   19  S  1 YZ    0.000000   0.000000   0.000000  -0.199132   0.000000
   20  O  2  S   -0.013635   0.000000  -0.000031   0.000000  -0.000878
   21  O  2  S   -1.328227   0.000000  -0.007253   0.000000   0.046336
   22  O  2  S    2.637413   0.000000   0.013287   0.000000  -0.030554
   23  O  2  X    0.081094   0.000000   0.000406   0.000000   0.028804
   24  O  2  Y    0.000000  -0.002412   0.000000   0.015572   0.000000
   25  O  2  Z    0.027667   0.000000   0.002684   0.000000   0.005420
   26  O  2  X    0.399800   0.000000  -0.000001   0.000000  -0.025272
   27  O  2  Y    0.000000   0.005167   0.000000  -0.028943   0.000000
   28  O  2  Z   -0.117979   0.000000  -0.005804   0.000000  -0.013010
   29  O  2 XX   -0.210825   0.000000  -0.013205   0.000000  -0.019349
   30  O  2 YY    0.106616   0.000000   0.613347   0.000000  -0.606276
   31  O  2 ZZ    0.104209   0.000000  -0.600143   0.000000   0.625625
   32  O  2 XY    0.000000   0.096174   0.000000  -0.081139   0.000000
   33  O  2 XZ    0.064376   0.000000  -0.095083   0.000000  -0.020064
   34  O  2 YZ    0.000000   0.700591   0.000000   0.708044   0.000000
   35  O  3  S    0.013635   0.000000   0.000031   0.000000  -0.000878
   36  O  3  S    1.328227   0.000000   0.007253   0.000000   0.046336
   37  O  3  S   -2.637413   0.000000  -0.013287   0.000000  -0.030554
   38  O  3  X    0.081094   0.000000   0.000406   0.000000  -0.028804
   39  O  3  Y    0.000000   0.002412   0.000000   0.015572   0.000000
   40  O  3  Z   -0.027667   0.000000  -0.002684   0.000000   0.005420
   41  O  3  X    0.399800   0.000000  -0.000001   0.000000   0.025272
   42  O  3  Y    0.000000  -0.005167   0.000000  -0.028943   0.000000
   43  O  3  Z    0.117979   0.000000   0.005804   0.000000  -0.013010
   44  O  3 XX    0.210825   0.000000   0.013205   0.000000  -0.019349
   45  O  3 YY   -0.106616   0.000000  -0.613347   0.000000  -0.606276
   46  O  3 ZZ   -0.104209   0.000000   0.600143   0.000000   0.625625
   47  O  3 XY    0.000000   0.096174   0.000000   0.081139   0.000000
   48  O  3 XZ    0.064376   0.000000  -0.095083   0.000000   0.020064
   49  O  3 YZ    0.000000  -0.700591   0.000000   0.708044   0.000000

                     41         42         43         44         45
                    2.1661     2.2036     2.6375     2.6475     2.9189
                     B2         A1         B1         A2         A1  
    1  S  1  S    0.000000  -0.002829   0.000000   0.000000  -0.077694
    2  S  1  S    0.000000  -0.072813   0.000000   0.000000  -0.294563
    3  S  1  S    0.000000  -0.133038   0.000000   0.000000  -1.381797
    4  S  1  S    0.000000  -0.083266   0.000000   0.000000  -1.657644
    5  S  1  X    0.000000   0.000000   0.014069   0.000000   0.000000
    6  S  1  Y    0.092049   0.000000   0.000000   0.000000   0.000000
    7  S  1  Z    0.000000   0.087983   0.000000   0.000000   0.016410
    8  S  1  X    0.000000   0.000000  -0.167475   0.000000   0.000000
    9  S  1  Y   -0.395128   0.000000   0.000000   0.000000   0.000000
   10  S  1  Z    0.000000  -0.390517   0.000000   0.000000  -0.156396
   11  S  1  X    0.000000   0.000000  -0.088691   0.000000   0.000000
   12  S  1  Y   -0.103220   0.000000   0.000000   0.000000   0.000000
   13  S  1  Z    0.000000  -0.123021   0.000000   0.000000  -0.039258
   14  S  1 XX    0.000000   0.277265   0.000000   0.000000  -1.301763
   15  S  1 YY    0.000000  -0.066669   0.000000   0.000000   0.652336
   16  S  1 ZZ    0.000000  -0.210596   0.000000   0.000000   0.649427
   17  S  1 XY    0.000000   0.000000   0.000000   0.840097   0.000000
   18  S  1 XZ    0.000000   0.000000   0.821323   0.000000   0.000000
   19  S  1 YZ   -0.099092   0.000000   0.000000   0.000000   0.000000
   20  O  2  S    0.000000   0.002412   0.003097   0.000000  -0.047589
   21  O  2  S    0.000000  -0.263991   0.147834   0.000000  -0.388425
   22  O  2  S    0.000000   0.233220  -0.225417   0.000000   1.855419
   23  O  2  X    0.000000  -0.141951   0.040595   0.000000   0.384334
   24  O  2  Y   -0.082364   0.000000   0.000000   0.037709   0.000000
   25  O  2  Z    0.000000  -0.063838   0.030598   0.000000  -0.048729
   26  O  2  X    0.000000   0.172390  -0.084917   0.000000   0.996913
   27  O  2  Y    0.209831   0.000000   0.000000   0.279537   0.000000
   28  O  2  Z    0.000000   0.209016   0.286566   0.000000  -0.107816
   29  O  2 XX    0.000000   0.180211   0.053404   0.000000   0.931072
   30  O  2 YY    0.000000  -0.114861   0.065761   0.000000  -0.479312
   31  O  2 ZZ    0.000000  -0.065350  -0.119164   0.000000  -0.451760
   32  O  2 XY    0.735399   0.000000   0.000000   0.827215   0.000000
   33  O  2 XZ    0.000000   0.702968   0.819152   0.000000  -0.228545
   34  O  2 YZ    0.078151   0.000000   0.000000  -0.107674   0.000000
   35  O  3  S    0.000000   0.002412  -0.003097   0.000000  -0.047589
   36  O  3  S    0.000000  -0.263991  -0.147834   0.000000  -0.388425
   37  O  3  S    0.000000   0.233220   0.225417   0.000000   1.855419
   38  O  3  X    0.000000   0.141951   0.040595   0.000000  -0.384334
   39  O  3  Y   -0.082364   0.000000   0.000000  -0.037709   0.000000
   40  O  3  Z    0.000000  -0.063838  -0.030598   0.000000  -0.048729
   41  O  3  X    0.000000  -0.172390  -0.084917   0.000000  -0.996913
   42  O  3  Y    0.209831   0.000000   0.000000  -0.279537   0.000000
   43  O  3  Z    0.000000   0.209016  -0.286566   0.000000  -0.107816
   44  O  3 XX    0.000000   0.180211  -0.053404   0.000000   0.931072
   45  O  3 YY    0.000000  -0.114861  -0.065761   0.000000  -0.479312
   46  O  3 ZZ    0.000000  -0.065350   0.119164   0.000000  -0.451760
   47  O  3 XY   -0.735399   0.000000   0.000000   0.827215   0.000000
   48  O  3 XZ    0.000000  -0.702968   0.819152   0.000000   0.228545
   49  O  3 YZ    0.078151   0.000000   0.000000   0.107674   0.000000

                     46
                    2.9690
                     B1  
    1  S  1  S    0.000000
    2  S  1  S    0.000000
    3  S  1  S    0.000000
    4  S  1  S    0.000000
    5  S  1  X   -0.216647
    6  S  1  Y    0.000000
    7  S  1  Z    0.000000
    8  S  1  X    1.870604
    9  S  1  Y    0.000000
   10  S  1  Z    0.000000
   11  S  1  X    0.543717
   12  S  1  Y    0.000000
   13  S  1  Z    0.000000
   14  S  1 XX    0.000000
   15  S  1 YY    0.000000
   16  S  1 ZZ    0.000000
   17  S  1 XY    0.000000
   18  S  1 XZ    0.231086
   19  S  1 YZ    0.000000
   20  O  2  S   -0.045406
   21  O  2  S   -0.620491
   22  O  2  S    1.759938
   23  O  2  X    0.179279
   24  O  2  Y    0.000000
   25  O  2  Z    0.004928
   26  O  2  X    0.906034
   27  O  2  Y    0.000000
   28  O  2  Z   -0.057447
   29  O  2 XX    0.882864
   30  O  2 YY   -0.433835
   31  O  2 ZZ   -0.449029
   32  O  2 XY    0.000000
   33  O  2 XZ   -0.033464
   34  O  2 YZ    0.000000
   35  O  3  S    0.045406
   36  O  3  S    0.620491
   37  O  3  S   -1.759938
   38  O  3  X    0.179279
   39  O  3  Y    0.000000
   40  O  3  Z   -0.004928
   41  O  3  X    0.906034
   42  O  3  Y    0.000000
   43  O  3  Z    0.057447
   44  O  3 XX   -0.882864
   45  O  3 YY    0.433835
   46  O  3 ZZ    0.449029
   47  O  3 XY    0.000000
   48  O  3 XZ   -0.033464
   49  O  3 YZ    0.000000
 ...... END OF RHF CALCULATION ......
 STEP CPU TIME =     4.90 TOTAL CPU TIME =        5.1 (    0.1 MIN)
 TOTAL WALL CLOCK TIME=        5.1 SECONDS, CPU UTILIZATION IS  99.80%

     ---------------------------------------------------------------------
     PROPERTIES FOR THE PBE      DFT FUNCTIONAL (RHF  TYPE) DENSITY MATRIX
     ---------------------------------------------------------------------

          -----------------
          ENERGY COMPONENTS
          -----------------

         WAVEFUNCTION NORMALIZATION =       1.0000000000

                ONE ELECTRON ENERGY =    -987.9115512633
                TWO ELECTRON ENERGY =     322.5809782878
           NUCLEAR REPULSION ENERGY =     117.2828705054
                                      ------------------
                       TOTAL ENERGY =    -548.0477024701

 ELECTRON-ELECTRON POTENTIAL ENERGY =     322.5809782878
  NUCLEUS-ELECTRON POTENTIAL ENERGY =   -1536.8635271301
   NUCLEUS-NUCLEUS POTENTIAL ENERGY =     117.2828705054
                                      ------------------
             TOTAL POTENTIAL ENERGY =   -1096.9996783369
               TOTAL KINETIC ENERGY =     548.9519758668
                 VIRIAL RATIO (V/T) =       1.9983527277

          ---------------------------------------
          MULLIKEN AND LOWDIN POPULATION ANALYSES
          ---------------------------------------

     ATOMIC MULLIKEN POPULATION IN EACH MOLECULAR ORBITAL

                      1          2          3          4          5

                  2.000000   2.000000   2.000000   2.000000   2.000000

    1             2.000086   0.002628   0.000605   2.003927   1.998470
    2            -0.000043   0.998686   0.999697  -0.001963   0.000765
    3            -0.000043   0.998686   0.999697  -0.001963   0.000765

                      6          7          8          9         10

                  2.000000   2.000000   2.000000   2.000000   2.000000

    1             1.999921   1.999905   0.769814   0.461365   0.476711
    2             0.000039   0.000047   0.615093   0.769318   0.761645
    3             0.000039   0.000047   0.615093   0.769318   0.761645

                     11         12         13         14         15

                  2.000000   2.000000   2.000000   2.000000   2.000000

    1             0.885975   0.883084   0.280397   0.193924   0.192633
    2             0.557013   0.558458   0.859802   0.903038   0.903684
    3             0.557013   0.558458   0.859802   0.903038   0.903684

                     16

                  2.000000

    1             1.523983
    2             0.238008
    3             0.238008

               ----- POPULATIONS IN EACH AO -----
                             MULLIKEN      LOWDIN
              1  S  1  S      2.00027     1.99574
              2  S  1  S      2.01119     1.95049
              3  S  1  S      0.87223     0.52709
              4  S  1  S      1.35323     0.71975
              5  S  1  X      1.99757     1.95908
              6  S  1  Y      1.99640     1.95391
              7  S  1  Z      1.99654     1.95531
              8  S  1  X      0.72773     0.62965
              9  S  1  Y      0.62162     0.57046
             10  S  1  Z      0.65391     0.60535
             11  S  1  X      0.01491     0.24059
             12  S  1  Y      0.26598     0.34118
             13  S  1  Z      0.27487     0.35342
             14  S  1 XX      0.12511     0.47461
             15  S  1 YY      0.37075     0.36466
             16  S  1 ZZ      0.19392     0.36283
             17  S  1 XY      0.19529     0.24143
             18  S  1 XZ      0.00190     0.24246
             19  S  1 YZ      0.00000     0.00182
             20  O  2  S      1.99824     1.98044
             21  O  2  S      0.83926     0.65462
             22  O  2  S      0.91211     0.51387
             23  O  2  X      1.09613     1.06373
             24  O  2  Y      0.90256     0.85101
             25  O  2  Z      0.93343     0.88379
             26  O  2  X      0.35020     0.51535
             27  O  2  Y      0.54779     0.58214
             28  O  2  Z      0.55460     0.58975
             29  O  2 XX      0.00246     0.21277
             30  O  2 YY      0.00716     0.19146
             31  O  2 ZZ      0.00971     0.19085
             32  O  2 XY      0.00961     0.01240
             33  O  2 XZ      0.00003     0.01284
             34  O  2 YZ      0.00000     0.00004
             35  O  3  S      1.99824     1.98044
             36  O  3  S      0.83926     0.65462
             37  O  3  S      0.91211     0.51387
             38  O  3  X      1.09613     1.06373
             39  O  3  Y      0.90256     0.85101
             40  O  3  Z      0.93343     0.88379
             41  O  3  X      0.35020     0.51535
             42  O  3  Y      0.54779     0.58214
             43  O  3  Z      0.55460     0.58975
             44  O  3 XX      0.00246     0.21277
             45  O  3 YY      0.00716     0.19146
             46  O  3 ZZ      0.00971     0.19085
             47  O  3 XY      0.00961     0.01240
             48  O  3 XZ      0.00003     0.01284
             49  O  3 YZ      0.00000     0.00004

          ----- MULLIKEN ATOMIC OVERLAP POPULATIONS -----
          (OFF-DIAGONAL ELEMENTS NEED TO BE MULTIPLIED BY 2)

             1           2           3

    1   15.6474975
    2    0.0129646   8.0908418
    3    0.0129646   0.0594801   8.0908418

          TOTAL MULLIKEN AND LOWDIN ATOMIC POPULATIONS
       ATOM         MULL.POP.    CHARGE          LOW.POP.     CHARGE
    1 S            15.673427    0.326573        15.489841    0.510159
    2 O             8.163287   -0.163287         8.255080   -0.255080
    3 O             8.163287   -0.163287         8.255080   -0.255080

          MULLIKEN SPHERICAL HARMONIC POPULATIONS
       ATOM           S       P       D      F      G      H      I    TOTAL
    1 S             6.24    8.55    0.89   0.00   0.00   0.00   0.00   15.67
    2 O             3.75    4.38    0.03   0.00   0.00   0.00   0.00    8.16
    3 O             3.75    4.38    0.03   0.00   0.00   0.00   0.00    8.16

          -------------------------------
          BOND ORDER AND VALENCE ANALYSIS     BOND ORDER THRESHOLD=0.050
          -------------------------------

                   BOND                       BOND                       BOND
  ATOM PAIR DIST  ORDER      ATOM PAIR DIST  ORDER      ATOM PAIR DIST  ORDER
    1   2  1.300  1.991        1   3  1.300  1.991        2   3  2.590  0.212

                       TOTAL       BONDED        FREE
      ATOM            VALENCE     VALENCE     VALENCE
    1 S                 3.982       3.982       0.000
    2 O                 2.203       2.203       0.000
    3 O                 2.203       2.203       0.000

          ---------------------
          ELECTROSTATIC MOMENTS
          ---------------------

 POINT   1           X           Y           Z (BOHR)    CHARGE
                 0.000000    0.000000    0.000000        0.00 (A.U.)
         DX          DY          DZ         /D/  (DEBYE)
     0.000000    0.000000    0.336950    0.336950
 ...... END OF PROPERTY EVALUATION ......
 STEP CPU TIME =     0.01 TOTAL CPU TIME =        5.1 (    0.1 MIN)
 TOTAL WALL CLOCK TIME=        5.1 SECONDS, CPU UTILIZATION IS 100.00%
               580000  WORDS OF DYNAMIC MEMORY USED
 EXECUTION OF GAMESS TERMINATED NORMALLY Thu Feb 26 00:15:00 2015
 DDI: 263624 bytes (0.3 MB / 0 MWords) used by master data server.

 ----------------------------------------
 CPU timing information for all processes
 ========================================
 0: 5.64 + 0.33 = 5.98
 ----------------------------------------
 ddikick.x: exited gracefully.
----- accounting info -----
Files used on the master node dftfe.crc.nd.edu were:
-rw-r--r-- 1 pmehta1 campus   37475 Feb 26 00:15 /tmp/gamess.dat
-rw-r--r-- 1 pmehta1 campus     142 Feb 26 00:14 /tmp/gamess.F05
-rw-r--r-- 1 pmehta1 campus 2160288 Feb 26 00:14 /tmp/gamess.F08
-rw-r--r-- 1 pmehta1 campus 1220440 Feb 26 00:15 /tmp/gamess.F10
Thu Feb 26 00:15:03 EST 2015
0.250u 0.169s 0:08.55 4.7%	0+0k 0+112io 0pf+0w
