----- GAMESS execution script 'rungms' -----
This job is running on host dftfe.crc.nd.edu
under operating system Linux at Thu Feb 26 00:20:32 EST 2015
Available scratch disk space (Kbyte units) at beginning of the job is
Filesystem     1K-blocks     Used Available Use% Mounted on
/dev/sda2      147771864 22816624 117448808  17% /
GAMESS temporary binary files will be written to /tmp
GAMESS supplementary output files will be written to /tmp
Copying input file gamess.inp to your run's scratch directory...

 Distributed Data Interface kickoff program.
 Initiating 1 compute processes on 1 nodes to run the following command:
 /opt/crc/gamess/2012R1/gamess/gamess.00.x gamess 

          ******************************************************
          *         GAMESS VERSION =  1 MAY 2012 (R1)          *
          *             FROM IOWA STATE UNIVERSITY             *
          * M.W.SCHMIDT, K.K.BALDRIDGE, J.A.BOATZ, S.T.ELBERT, *
          *   M.S.GORDON, J.H.JENSEN, S.KOSEKI, N.MATSUNAGA,   *
          *          K.A.NGUYEN, S.J.SU, T.L.WINDUS,           *
          *       TOGETHER WITH M.DUPUIS, J.A.MONTGOMERY       *
          *         J.COMPUT.CHEM.  14, 1347-1363(1993)        *
          **************** 64 BIT LINUX VERSION ****************

  SINCE 1993, STUDENTS AND POSTDOCS WORKING AT IOWA STATE UNIVERSITY
  AND ALSO IN THEIR VARIOUS JOBS AFTER LEAVING ISU HAVE MADE IMPORTANT
  CONTRIBUTIONS TO THE CODE:
     IVANA ADAMOVIC, CHRISTINE AIKENS, YURI ALEXEEV, POOJA ARORA,
     ANDREY ASADCHEV, ROB BELL, PRADIPTA BANDYOPADHYAY, JONATHAN BENTZ,
     BRETT BODE, GALINA CHABAN, WEI CHEN, CHEOL HO CHOI, PAUL DAY,
     ALBERT DEFUSCO, TIM DUDLEY, DMITRI FEDOROV, GRAHAM FLETCHER,
     MARK FREITAG, KURT GLAESEMANN, DAN KEMP, GRANT MERRILL,
     NORIYUKI MINEZAWA, JONATHAN MULLIN, TAKESHI NAGATA,
     SEAN NEDD, HEATHER NETZLOFF, BOSILJKA NJEGIC, RYAN OLSON, MIKE PAK,
     JIM SHOEMAKER, LYUDMILA SLIPCHENKO, SAROM SOK, JIE SONG,
     TETSUYA TAKETSUGU, SIMON WEBB, SOOHAENG YOO, FEDERICO ZAHARIEV

  ADDITIONAL CODE HAS BEEN PROVIDED BY COLLABORATORS IN OTHER GROUPS:
     IOWA STATE UNIVERSITY:
          JOE IVANIC, LAIMUTIS BYTAUTAS, KLAUS RUEDENBERG
     UNIVERSITY OF TOKYO: KIMIHIKO HIRAO, TAKAHITO NAKAJIMA,
          TAKAO TSUNEDA, MUNEAKI KAMIYA, SUSUMU YANAGISAWA,
          KIYOSHI YAGI, MAHITO CHIBA, SEIKEN TOKURA, NAOAKI KAWAKAMI
     UNIVERSITY OF AARHUS: FRANK JENSEN
     UNIVERSITY OF IOWA: VISVALDAS KAIRYS, HUI LI
     NATIONAL INST. OF STANDARDS AND TECHNOLOGY: WALT STEVENS, DAVID GARMER
     UNIVERSITY OF PISA: BENEDETTA MENNUCCI, JACOPO TOMASI
     UNIVERSITY OF MEMPHIS: HENRY KURTZ, PRAKASHAN KORAMBATH
     UNIVERSITY OF ALBERTA: TOBY ZENG, MARIUSZ KLOBUKOWSKI
     UNIVERSITY OF NEW ENGLAND: MARK SPACKMAN
     MIE UNIVERSITY: HIROAKI UMEDA
     MICHIGAN STATE UNIVERSITY:
          KAROL KOWALSKI, MARTA WLOCH, JEFFREY GOUR, JESSE LUTZ, PIOTR PIECUCH
     UNIVERSITY OF SILESIA: MONIKA MUSIAL, STANISLAW KUCHARSKI
     FACULTES UNIVERSITAIRES NOTRE-DAME DE LA PAIX:
          OLIVIER QUINET, BENOIT CHAMPAGNE
     UNIVERSITY OF CALIFORNIA - SANTA BARBARA: BERNARD KIRTMAN
     INSTITUTE FOR MOLECULAR SCIENCE:
          KAZUYA ISHIMURA, MICHIO KATOUDA, AND SHIGERU NAGASE
     UNIVERSITY OF NOTRE DAME: DAN CHIPMAN
     KYUSHU UNIVERSITY:
          HARUYUKI NAKANO,
          FENG LONG GU, JACEK KORCHOWIEC, MARCIN MAKOWSKI, AND YURIKO AOKI,
          HIROTOSHI MORI AND EISAKU MIYOSHI
     PENNSYLVANIA STATE UNIVERSITY:
          TZVETELIN IORDANOV, CHET SWALINA, JONATHAN SKONE,
          SHARON HAMMES-SCHIFFER
     WASEDA UNIVERSITY:
          MASATO KOBAYASHI, TOMOKO AKAMA, TSUGUKI TOUMA,
          TAKESHI YOSHIKAWA, YASUHIRO IKABATA, HIROMI NAKAI
     UNIVERSITY OF NEBRASKA:
          PEIFENG SU, DEJUN SI, NANDUN THELLAMUREGE, YALI WANG, HUI LI
     UNIVERSITY OF ZURICH:
          ROBERTO PEVERATI, KIM BALDRIDGE
     N. COPERNICUS UNIVERSITY AND JACKSON STATE UNIVERSITY:
          MARIA BARYSZ

 EXECUTION OF GAMESS BEGUN Thu Feb 26 00:20:32 2015

            ECHO OF THE FIRST FEW INPUT CARDS -
 INPUT CARD> $BASIS GBASIS=PC1 $END                                                         
 INPUT CARD> $CONTRL COORD=ZMT ISPHER=1 RUNTYP=ENERGY DFTTYP=PBE $END                       
 INPUT CARD>                                                                                
 INPUT CARD> $DATA                                                                          
 INPUT CARD>Title                                                                           
 INPUT CARD>Cnv 2                                                                           
 INPUT CARD>                                                                                
 INPUT CARD>S                                                                               
 INPUT CARD>O 1 1.80                                                                        
 INPUT CARD>O 1 1.80 2 120.0                                                                
 INPUT CARD> $END                                                                           
    1000000 WORDS OF MEMORY AVAILABLE

     BASIS OPTIONS
     -------------
     GBASIS=PC1          IGAUSS=       0      POLAR=NONE    
     NDFUNC=       0     NFFUNC=       0     DIFFSP=       F
     NPFUNC=       0      DIFFS=       F     BASNAM=        


     RUN TITLE
     ---------
 Title                                                                           

 THE POINT GROUP OF THE MOLECULE IS CNV     
 THE ORDER OF THE PRINCIPAL AXIS IS     2

 YOUR FULLY SUBSTITUTED Z-MATRIX IS
 S   
 O      1   1.8000000
 O      1   1.8000000  2  120.0000

 THE MOMENTS OF INERTIA ARE (AMU-ANGSTROM**2)
 IXX=    12.952   IYY=    77.735   IZZ=    90.688

 ATOM      ATOMIC                      COORDINATES (BOHR)
           CHARGE         X                   Y                   Z
 S          16.0     0.0000000000        0.0000000000       -0.8506126817
 O           8.0    -2.9457912808        0.0000000000        0.8501407073
 O           8.0     2.9457912808        0.0000000000        0.8501407073

          INTERNUCLEAR DISTANCES (ANGS.)
          ------------------------------

                1 S          2 O          3 O     

   1 S       0.0000000    1.8000000 *  1.8000000 *
   2 O       1.8000000 *  0.0000000    3.1176915  
   3 O       1.8000000 *  3.1176915    0.0000000  

  * ... LESS THAN  3.000


     ATOMIC BASIS SET
     ----------------
 THE CONTRACTED PRIMITIVE FUNCTIONS HAVE BEEN UNNORMALIZED
 THE CONTRACTED BASIS FUNCTIONS ARE NOW NORMALIZED TO UNITY

  SHELL TYPE  PRIMITIVE        EXPONENT          CONTRACTION COEFFICIENT(S)

 S         

      1   S       1         55510.0000000    0.000587229760
      1   S       2          8326.7000000    0.004532413947
      1   S       3          1895.6000000    0.023265261648
      1   S       4           536.7700000    0.089696133027
      1   S       5           174.6700000    0.254098332277
      1   S       6            62.5780000    0.438665087637
      1   S       7            23.5730000    0.314547135094
      1   S       8             5.8908000    0.032727897102

      2   S       9          8326.7000000   -0.000019755715
      2   S      10          1895.6000000   -0.000043822381
      2   S      11           536.7700000   -0.001730264906
      2   S      12           174.6700000   -0.009381263460
      2   S      13            62.5780000   -0.064050766303
      2   S      14            23.5730000   -0.082478179196
      2   S      15             5.8908000    0.478342956889
      2   S      16             2.1852000    0.626896670208

      3   S      17          1895.6000000    0.000016227260
      3   S      18           536.7700000    0.000191135619
      3   S      19           174.6700000    0.001952069674
      3   S      20            62.5780000    0.010578701087
      3   S      21            23.5730000    0.022164934551
      3   S      22             5.8908000   -0.184968323118
      3   S      23             2.1852000   -0.480920750976
      3   S      24             0.4528200    1.243822243872

      4   S      25             0.1620200    1.000000000000

      5   P      26           395.4500000    0.004642761329
      5   P      27            92.8340000    0.036023396489
      5   P      28            29.2660000    0.149058869978
      5   P      29            10.5950000    0.360033266263
      5   P      30             4.0272000    0.455756476221
      5   P      31             1.5484000    0.206167664178

      6   P      32            92.8340000    0.000169901442
      6   P      33            29.2660000   -0.002541839934
      6   P      34            10.5950000   -0.007867614595
      6   P      35             4.0272000   -0.037231009184
      6   P      36             1.5484000    0.161417246830
      6   P      37             0.4613400    0.902230419976

      7   P      38             0.1313100    1.000000000000

      8   D      39             0.5500000    1.000000000000

 O         

     15   S      40          2306.7000000    0.005424388755
     15   S      41           347.1500000    0.040474749465
     15   S      42            78.8900000    0.180219634554
     15   S      43            21.8760000    0.462370311787
     15   S      44             6.6646000    0.454888396263

     16   S      45           347.1500000   -0.000655003786
     16   S      46            78.8900000   -0.005362052952
     16   S      47            21.8760000   -0.074902158894
     16   S      48             6.6646000   -0.181442579655
     16   S      49             1.0669000    1.102006874042

     17   S      50             0.3070000    1.000000000000

     18   P      51            17.0220000    0.068979967443
     18   P      52             3.6838000    0.351985516325
     18   P      53             0.9923400    0.724036547822

     19   P      54             0.2448700    1.000000000000

     20   D      55             1.0000000    1.000000000000

 TOTAL NUMBER OF BASIS SET SHELLS             =   20
 NUMBER OF CARTESIAN GAUSSIAN BASIS FUNCTIONS =   49
 NOTE: THIS RUN WILL RESTRICT THE MO VARIATION SPACE TO SPHERICAL HARMONICS.
 THE NUMBER OF ORBITALS KEPT IN THE VARIATIONAL SPACE WILL BE PRINTED LATER.
 NUMBER OF ELECTRONS                          =   32
 CHARGE OF MOLECULE                           =    0
 SPIN MULTIPLICITY                            =    1
 NUMBER OF OCCUPIED ORBITALS (ALPHA)          =   16
 NUMBER OF OCCUPIED ORBITALS (BETA )          =   16
 TOTAL NUMBER OF ATOMS                        =    3
 THE NUCLEAR REPULSION ENERGY IS       86.1237199736

     LEBEDEV GRID-BASED DFT OPTIONS
     ------------------------------
     DFTTYP=PBE     
     NRAD  =      96     NLEB  =     302
     NRAD0 =      24     NLEB0 =     110
     SWOFF =    5.00E-03 (PURE SCF -> DFT)
     SWITCH=    3.00E-04 (COARSE -> TIGHT GRID)
     THRESH=    0.00E+00 GTHRE=    1.00E+00

 GRIMME'S EMPIRICAL DISPERSION CORRECTION= F

     $CONTRL OPTIONS
     ---------------
 SCFTYP=RHF          RUNTYP=ENERGY       EXETYP=RUN     
 MPLEVL=       0     CITYP =NONE         CCTYP =NONE         VBTYP =NONE    
 DFTTYP=PBE          TDDFT =NONE    
 MULT  =       1     ICHARG=       0     NZVAR =       0     COORD =ZMT     
 PP    =NONE         RELWFN=NONE         LOCAL =NONE         NUMGRD=       F
 ISPHER=       1     NOSYM =       0     MAXIT =      30     UNITS =ANGS    
 PLTORB=       F     MOLPLT=       F     AIMPAC=       F     FRIEND=        
 NPRINT=       7     IREST =       0     GEOM  =INPUT   
 NORMF =       0     NORMP =       0     ITOL  =      20     ICUT  =       9
 INTTYP=BEST         GRDTYP=BEST         QMTTOL= 1.0E-06

     $SYSTEM OPTIONS
     ---------------
  REPLICATED MEMORY=     1000000 WORDS (ON EVERY NODE).
 DISTRIBUTED MEMDDI=           0 MILLION WORDS IN AGGREGATE,
 MEMDDI DISTRIBUTED OVER   1 PROCESSORS IS           0 WORDS/PROCESSOR.
 TOTAL MEMORY REQUESTED ON EACH PROCESSOR=     1000000 WORDS.
 TIMLIM=      525600.00 MINUTES, OR     365.0 DAYS.
 PARALL= F  BALTYP=  DLB     KDIAG=    0  COREFL= F
 MXSEQ2=     300 MXSEQ3=     150

          ----------------
          PROPERTIES INPUT
          ----------------

     MOMENTS            FIELD           POTENTIAL          DENSITY
 IEMOM =       1   IEFLD =       0   IEPOT =       0   IEDEN =       0
 WHERE =COMASS     WHERE =NUCLEI     WHERE =NUCLEI     WHERE =NUCLEI  
 OUTPUT=BOTH       OUTPUT=BOTH       OUTPUT=BOTH       OUTPUT=BOTH    
 IEMINT=       0   IEFINT=       0                     IEDINT=       0
                                                       MORB  =       0
          EXTRAPOLATION IN EFFECT
          DIIS IN EFFECT
 ORBITAL PRINTING OPTION: NPREO=     1    49     2     1

     -------------------------------
     INTEGRAL TRANSFORMATION OPTIONS
     -------------------------------
     NWORD  =            0
     CUTOFF = 1.0E-09     MPTRAN =       0
     DIRTRF =       F     AOINTS =DUP     

          ----------------------
          INTEGRAL INPUT OPTIONS
          ----------------------
 NOPK  =       1 NORDER=       0 SCHWRZ=       F

   --- ENCODED Z MATRIX ---
 COORD  TYPE   I   J   K   L   M   N
    1      1    3   1
    2      1    2   1
    3      2    2   1   3

 THE DETERMINANT OF THE G MATRIX IS 10**(    -4)

 THE DETERMINANT OF THE G MATRIX IS 10**(    -4)
 * * * WARNING * * *
 YOUR B MATRIX HAS A SMALL DETERMINANT.
 THIS SUGGESTS YOU MAY HAVE BADLY CHOSEN COORDINATES.

     ------------------------------------------
     THE POINT GROUP IS CNV, NAXIS= 2, ORDER= 4
     ------------------------------------------

 -- VARIATIONAL SPACE WILL BE RESTRICTED TO PURE SPHERICAL HARMONICS ONLY --
 AFTER EXCLUDING CONTAMINANT COMBINATIONS FROM THE CARTESIAN GAUSSIAN BASIS
 SET, THE NUMBER OF SPHERICAL HARMONICS KEPT IN THE VARIATION SPACE IS   46

     DIMENSIONS OF THE SYMMETRY SUBSPACES ARE
 A1  =   19     A2  =    5     B1  =   14     B2  =    8

 ..... DONE SETTING UP THE RUN .....
 STEP CPU TIME =     0.01 TOTAL CPU TIME =        0.0 (    0.0 MIN)
 TOTAL WALL CLOCK TIME=        0.0 SECONDS, CPU UTILIZATION IS  50.00%

          ********************
          1 ELECTRON INTEGRALS
          ********************
 ...... END OF ONE-ELECTRON INTEGRALS ......
 STEP CPU TIME =     0.00 TOTAL CPU TIME =        0.0 (    0.0 MIN)
 TOTAL WALL CLOCK TIME=        0.0 SECONDS, CPU UTILIZATION IS  33.33%

          -------------
          GUESS OPTIONS
          -------------
          GUESS =HUCKEL            NORB  =       0          NORDER=       0
          MIX   =       F          PRTMO =       F          PUNMO =       F
          TOLZ  = 1.0E-08          TOLE  = 1.0E-05
          SYMDEN=       F          PURIFY=       F

 INITIAL GUESS ORBITALS GENERATED BY HUCKEL   ROUTINE.
 HUCKEL GUESS REQUIRES     21583 WORDS.

 STATISTICS FOR GENERATION OF SYMMETRY ORBITAL -Q- MATRIX
 NUMBER OF CARTESIAN ATOMIC ORBITALS=         49
 NUMBER OF SPHERICAL CONTAMINANTS DROPPED=     3
 NUMBER OF LINEARLY DEPENDENT MOS DROPPED=     0
 TOTAL NUMBER OF MOS IN VARIATION SPACE=      46

 SYMMETRIES FOR INITIAL GUESS ORBITALS FOLLOW.   BOTH SET(S).
    16 ORBITALS ARE OCCUPIED (    7 CORE ORBITALS).
     8=A1       9=?B1     10=A1      11=?B1     12=?B2     13=A1      14=?A2 
    15=B1      16=?A1     17=B2      18=A1      19=B1      20=A1      21=A1  
    22=A1      23=A1      24=A1      25=A1      26=A1  
 ...... END OF INITIAL ORBITAL SELECTION ......
 STEP CPU TIME =     0.01 TOTAL CPU TIME =        0.0 (    0.0 MIN)
 TOTAL WALL CLOCK TIME=        0.0 SECONDS, CPU UTILIZATION IS  66.67%

                    ----------------------
                    AO INTEGRAL TECHNOLOGY
                    ----------------------
     S,P,L SHELL ROTATED AXIS INTEGRALS, REPROGRAMMED BY
        KAZUYA ISHIMURA (IMS) AND JOSE SIERRA (SYNSTAR).
     S,P,D,L SHELL ROTATED AXIS INTEGRALS PROGRAMMED BY
        KAZUYA ISHIMURA (INSTITUTE FOR MOLECULAR SCIENCE).
     S,P,D,F,G SHELL TO TOTAL QUARTET ANGULAR MOMENTUM SUM 5,
        ERIC PROGRAM BY GRAHAM FLETCHER (ELORET AND NASA ADVANCED
        SUPERCOMPUTING DIVISION, AMES RESEARCH CENTER).
     S,P,D,F,G,L SHELL GENERAL RYS QUADRATURE PROGRAMMED BY
        MICHEL DUPUIS (PACIFIC NORTHWEST NATIONAL LABORATORY).

          --------------------
          2 ELECTRON INTEGRALS
          --------------------

 THE -PK- OPTION IS OFF, THE INTEGRALS ARE NOT IN SUPERMATRIX FORM.
 STORING   15000 INTEGRALS/RECORD ON DISK, USING 12 BYTES/INTEGRAL.
 TWO ELECTRON INTEGRAL EVALUATION REQUIRES   90606 WORDS OF MEMORY.
 II,JST,KST,LST =  1  1  1  1 NREC =         1 INTLOC =    1
 II,JST,KST,LST =  2  1  1  1 NREC =         1 INTLOC =    2
 II,JST,KST,LST =  3  1  1  1 NREC =         1 INTLOC =    7
 II,JST,KST,LST =  4  1  1  1 NREC =         1 INTLOC =   22
 II,JST,KST,LST =  5  1  1  1 NREC =         1 INTLOC =   56
 II,JST,KST,LST =  6  1  1  1 NREC =         1 INTLOC =  125
 II,JST,KST,LST =  7  1  1  1 NREC =         1 INTLOC =  329
 II,JST,KST,LST =  8  1  1  1 NREC =         1 INTLOC =  776
 II,JST,KST,LST =  9  1  1  1 NREC =         1 INTLOC = 2864
 II,JST,KST,LST = 10  1  1  1 NREC =         1 INTLOC = 2864
 II,JST,KST,LST = 11  1  1  1 NREC =         1 INTLOC = 2864
 II,JST,KST,LST = 12  1  1  1 NREC =         1 INTLOC = 2864
 II,JST,KST,LST = 13  1  1  1 NREC =         1 INTLOC = 2864
 II,JST,KST,LST = 14  1  1  1 NREC =         1 INTLOC = 2864
 II,JST,KST,LST = 15  1  1  1 NREC =         1 INTLOC = 2864
 II,JST,KST,LST = 16  1  1  1 NREC =         1 INTLOC = 4852
 II,JST,KST,LST = 17  1  1  1 NREC =         1 INTLOC = 7910
 II,JST,KST,LST = 18  1  1  1 NREC =         1 INTLOC =12260
 II,JST,KST,LST = 19  1  1  1 NREC =         2 INTLOC =13491
 II,JST,KST,LST = 20  1  1  1 NREC =         4 INTLOC =13833
 TOTAL NUMBER OF NONZERO TWO-ELECTRON INTEGRALS =              161526
         11 INTEGRAL RECORDS WERE STORED ON DISK FILE  8.
  ...... END OF TWO-ELECTRON INTEGRALS .....
 STEP CPU TIME =     0.15 TOTAL CPU TIME =        0.2 (    0.0 MIN)
 TOTAL WALL CLOCK TIME=        0.2 SECONDS, CPU UTILIZATION IS  89.47%

          --------------------------
               R-PBE SCF CALCULATION
          --------------------------

     NUCLEAR ENERGY =        86.1237199736
     MAXIT =   30     NPUNCH=    2
     EXTRAP=T  DAMP=F  SHIFT=F  RSTRCT=F  DIIS=T  DEM=F  SOSCF=F
         DENSITY MATRIX CONVERGENCE THRESHOLD=  1.00E-05
     COARSE -> FINE DFT GRID SWITCH THRESHOLD=  3.00E-04 (SWITCH IN $DFT)
                   HF -> DFT SWITCH THRESHOLD=  5.00E-03 (SWOFF IN $DFT)
     MEMORY REQUIRED FOR RHF ITERS=    183108 WORDS.

 DFT CODE IS SWITCHING FROM THE FINE GRID NRAD= 96,  NLEB=  302
                      TO THE COARSE GRID NRAD0= 24, NLEB0=  110

     EXCHANGE FUNCTIONAL   =PBE       
     CORRELATION FUNCTIONAL=PBE       
     DFT THRESHOLD         =.460E-07
     GRID CHANGE THRESHOLD =.300E-03
 FOR AN EULER-MACLAURIN QUADRATURE USING  96 RADIAL POINTS:
 SMALLEST GAUSSIAN PRIMITIVE EXPONENT=        0.1313100000 OF TYPE -P-
 ON ATOM NUMBER   1 HAS RADIAL NORMALIZATION=  1.000000
  LARGEST GAUSSIAN PRIMITIVE EXPONENT=    55510.0000000000 OF TYPE -S-
 ON ATOM NUMBER   1 HAS RADIAL NORMALIZATION=  0.999999
 DFT IS SWITCHED OFF, PERFORMING PURE SCF UNTIL SWOFF THRESHOLD IS REACHED.

 ITER EX DEM     TOTAL ENERGY        E CHANGE  DENSITY CHANGE    DIIS ERROR
   1  0  0     -545.8464457533  -545.8464457533   0.602187677   0.959350158
   2  1  0     -546.0694056310    -0.2229598778   0.741030583   0.571979668
   3  2  0     -545.7599936916     0.3094119394   0.921910501   0.604483356
   4  3  0     -544.8470014587     0.9129922330   1.020749821   0.994465268
   5  0  0     -544.2664143552     0.5805871035   0.647316762   0.857339781
          * * *   INITIATING DIIS PROCEDURE   * * *
   6  1  0     -546.8816467758    -2.6152324206   0.203832148   0.069710135
   7  2  0     -546.8909056497    -0.0092588739   0.068603020   0.087058219
   8  3  0     -546.9130382267    -0.0221325770   0.023513246   0.020398178
   9  4  0     -546.9154677804    -0.0024295538   0.022328994   0.011201469
  10  5  0     -546.9165029021    -0.0010351217   0.010908452   0.003975412
  11  6  0     -546.9168089763    -0.0003060742   0.010186581   0.002845759
  12  7  0     -546.9169321509    -0.0001231746   0.006012133   0.001468597
  13  8  0     -546.9169594649    -0.0000273140   0.001193639   0.000270848
 CONVERGED TO SWOFF, SO DFT CALCULATION IS NOW SWITCHED ON.
          * * *   INITIATING DIIS PROCEDURE   * * *
  14  9  0     -548.1067998116    -1.1898403467   0.450557814   0.105327660
  15 10  0     -548.0732802661     0.0335195456   0.384234918   0.183912070
  16 11  0     -548.0626975590     0.0105827071   0.125111506   0.234214665
  17 12  0     -548.1704404969    -0.1077429380   0.020456007   0.015247769
  18 13  0     -548.1713818376    -0.0009413407   0.002273973   0.003305564
  19 14  0     -548.1714057591    -0.0000239215   0.000735670   0.000557454
  20 15  0     -548.1714065996    -0.0000008404   0.000077891   0.000050925
 DFT CODE IS SWITCHING BACK TO THE FINE GRID
          * * *   INITIATING DIIS PROCEDURE   * * *
  21 16  0     -548.1649200899     0.0064865096   0.011081934   0.016489729
  22 17  0     -548.1652502122    -0.0003301222   0.016842220   0.003814470
  23 18  0     -548.1646274794     0.0006227327   0.014510541   0.017651768
  24 19  0     -548.1652940759    -0.0006665964   0.000775306   0.000400390
  25 20  0     -548.1652944929    -0.0000004170   0.000266163   0.000197191
  26 21  0     -548.1652945918    -0.0000000989   0.000024992   0.000022892
  27 22  0     -548.1652945928    -0.0000000011   0.000000699   0.000001277
  28 23  0     -548.1652945928     0.0000000000   0.000000204   0.000000197

          -----------------
          DENSITY CONVERGED
          -----------------
     TIME TO FORM FOCK OPERATORS=       4.2 SECONDS (       0.2 SEC/ITER)
     TIME TO SOLVE SCF EQUATIONS=       0.0 SECONDS (       0.0 SEC/ITER)

 FINAL R-PBE ENERGY IS     -548.1652945928 AFTER  28 ITERATIONS
 DFT EXCHANGE + CORRELATION ENERGY =       -42.1801631078
 TOTAL ELECTRON NUMBER             =        32.0000054600

          ------------
          EIGENVECTORS
          ------------

                      1          2          3          4          5
                  -88.2256   -18.8328   -18.8327    -7.8461    -5.8674
                     A1         A1         B1         A1         B1  
    1  S  1  S    1.002978  -0.000072   0.000000  -0.274126   0.000000
    2  S  1  S   -0.010271  -0.001112   0.000000   1.039571   0.000000
    3  S  1  S    0.001783  -0.002109   0.000000   0.040449   0.000000
    4  S  1  S   -0.000984   0.007295   0.000000  -0.012636   0.000000
    5  S  1  X    0.000000   0.000000   0.000123   0.000000   0.996879
    6  S  1  Y    0.000000   0.000000   0.000000   0.000000   0.000000
    7  S  1  Z    0.000057  -0.000089   0.000000   0.008266   0.000000
    8  S  1  X    0.000000   0.000000  -0.000709   0.000000   0.008931
    9  S  1  Y    0.000000   0.000000   0.000000   0.000000   0.000000
   10  S  1  Z    0.000009   0.000467   0.000000   0.000577   0.000000
   11  S  1  X    0.000000   0.000000  -0.004532   0.000000  -0.000124
   12  S  1  Y    0.000000   0.000000   0.000000   0.000000   0.000000
   13  S  1  Z   -0.000072   0.003049   0.000000  -0.000715   0.000000
   14  S  1 XX   -0.000006   0.001198   0.000000   0.000233   0.000000
   15  S  1 YY    0.000009  -0.001088   0.000000  -0.000085   0.000000
   16  S  1 ZZ   -0.000003  -0.000110   0.000000  -0.000148   0.000000
   17  S  1 XY    0.000000   0.000000   0.000000   0.000000   0.000000
   18  S  1 XZ    0.000000   0.000000  -0.001346   0.000000   0.000458
   19  S  1 YZ    0.000000   0.000000   0.000000   0.000000   0.000000
   20  O  2  S   -0.000001   0.703252   0.703240   0.000016   0.000041
   21  O  2  S   -0.000013   0.025155   0.024993  -0.000043   0.000049
   22  O  2  S    0.000109  -0.010693  -0.010460   0.000871  -0.000007
   23  O  2  X    0.000006   0.000826   0.000652  -0.000060   0.000005
   24  O  2  Y    0.000000   0.000000   0.000000   0.000000   0.000000
   25  O  2  Z   -0.000009  -0.000327  -0.000505  -0.000014  -0.000009
   26  O  2  X    0.000008  -0.002781  -0.001799  -0.000136  -0.000031
   27  O  2  Y    0.000000   0.000000   0.000000   0.000000   0.000000
   28  O  2  Z    0.000018   0.000908   0.001648   0.000291   0.000030
   29  O  2 XX   -0.000033  -0.000321  -0.000142  -0.000415  -0.000085
   30  O  2 YY    0.000029   0.000222   0.000175   0.000352   0.000073
   31  O  2 ZZ    0.000005   0.000099  -0.000033   0.000063   0.000012
   32  O  2 XY    0.000000   0.000000   0.000000   0.000000   0.000000
   33  O  2 XZ    0.000045   0.000250   0.000273   0.000543   0.000111
   34  O  2 YZ    0.000000   0.000000   0.000000   0.000000   0.000000
   35  O  3  S   -0.000001   0.703252  -0.703240   0.000016  -0.000041
   36  O  3  S   -0.000013   0.025155  -0.024993  -0.000043  -0.000049
   37  O  3  S    0.000109  -0.010693   0.010460   0.000871   0.000007
   38  O  3  X   -0.000006  -0.000826   0.000652   0.000060   0.000005
   39  O  3  Y    0.000000   0.000000   0.000000   0.000000   0.000000
   40  O  3  Z   -0.000009  -0.000327   0.000505  -0.000014   0.000009
   41  O  3  X   -0.000008   0.002781  -0.001799   0.000136  -0.000031
   42  O  3  Y    0.000000   0.000000   0.000000   0.000000   0.000000
   43  O  3  Z    0.000018   0.000908  -0.001648   0.000291  -0.000030
   44  O  3 XX   -0.000033  -0.000321   0.000142  -0.000415   0.000085
   45  O  3 YY    0.000029   0.000222  -0.000175   0.000352  -0.000073
   46  O  3 ZZ    0.000005   0.000099   0.000033   0.000063  -0.000012
   47  O  3 XY    0.000000   0.000000   0.000000   0.000000   0.000000
   48  O  3 XZ   -0.000045  -0.000250   0.000273  -0.000543   0.000111
   49  O  3 YZ    0.000000   0.000000   0.000000   0.000000   0.000000

                      6          7          8          9         10
                   -5.8649    -5.8630    -0.9256    -0.8841    -0.6578
                     B2         A1         A1         B1         A1  
    1  S  1  S    0.000000   0.002245   0.041495   0.000000   0.075367
    2  S  1  S    0.000000  -0.008711  -0.121064   0.000000  -0.214897
    3  S  1  S    0.000000  -0.000350   0.245334   0.000000   0.470419
    4  S  1  S    0.000000  -0.000091   0.181352   0.000000   0.445160
    5  S  1  X    0.000000   0.000000   0.000000   0.071664   0.000000
    6  S  1  Y    0.996933   0.000000   0.000000   0.000000   0.000000
    7  S  1  Z    0.000000   0.996931  -0.036331   0.000000   0.018078
    8  S  1  X    0.000000   0.000000   0.000000  -0.145406   0.000000
    9  S  1  Y    0.008810   0.000000   0.000000   0.000000   0.000000
   10  S  1  Z    0.000000   0.008683   0.074331   0.000000  -0.034490
   11  S  1  X    0.000000   0.000000   0.000000  -0.031206   0.000000
   12  S  1  Y   -0.000160   0.000000   0.000000   0.000000   0.000000
   13  S  1  Z    0.000000  -0.000175   0.010876   0.000000  -0.034149
   14  S  1 XX    0.000000  -0.000266   0.026869   0.000000  -0.008422
   15  S  1 YY    0.000000  -0.000191  -0.021158   0.000000   0.009157
   16  S  1 ZZ    0.000000   0.000456  -0.005711   0.000000  -0.000735
   17  S  1 XY    0.000000   0.000000   0.000000   0.000000   0.000000
   18  S  1 XZ    0.000000   0.000000   0.000000  -0.038002   0.000000
   19  S  1 YZ    0.000378   0.000000   0.000000   0.000000   0.000000
   20  O  2  S    0.000000  -0.000032  -0.133004  -0.153959   0.092720
   21  O  2  S    0.000000  -0.000100   0.266346   0.312249  -0.194172
   22  O  2  S    0.000000   0.000172   0.332284   0.395610  -0.285055
   23  O  2  X    0.000000   0.000001   0.066167   0.054993   0.080440
   24  O  2  Y    0.000003   0.000000   0.000000   0.000000   0.000000
   25  O  2  Z    0.000000   0.000009  -0.036784  -0.034373  -0.048152
   26  O  2  X    0.000000   0.000104   0.034825   0.029802   0.037728
   27  O  2  Y   -0.000048   0.000000   0.000000   0.000000   0.000000
   28  O  2  Z    0.000000  -0.000132  -0.019595  -0.019673  -0.019018
   29  O  2 XX    0.000000   0.000067   0.007539   0.005080   0.003933
   30  O  2 YY    0.000000  -0.000069  -0.004056  -0.002306  -0.004493
   31  O  2 ZZ    0.000000   0.000002  -0.003483  -0.002773   0.000560
   32  O  2 XY   -0.000020   0.000000   0.000000   0.000000   0.000000
   33  O  2 XZ    0.000000  -0.000122  -0.008658  -0.007336  -0.004755
   34  O  2 YZ    0.000009   0.000000   0.000000   0.000000   0.000000
   35  O  3  S    0.000000  -0.000032  -0.133004   0.153959   0.092720
   36  O  3  S    0.000000  -0.000100   0.266346  -0.312249  -0.194172
   37  O  3  S    0.000000   0.000172   0.332284  -0.395610  -0.285055
   38  O  3  X    0.000000  -0.000001  -0.066167   0.054993  -0.080440
   39  O  3  Y    0.000003   0.000000   0.000000   0.000000   0.000000
   40  O  3  Z    0.000000   0.000009  -0.036784   0.034373  -0.048152
   41  O  3  X    0.000000  -0.000104  -0.034825   0.029802  -0.037728
   42  O  3  Y   -0.000048   0.000000   0.000000   0.000000   0.000000
   43  O  3  Z    0.000000  -0.000132  -0.019595   0.019673  -0.019018
   44  O  3 XX    0.000000   0.000067   0.007539  -0.005080   0.003933
   45  O  3 YY    0.000000  -0.000069  -0.004056   0.002306  -0.004493
   46  O  3 ZZ    0.000000   0.000002  -0.003483   0.002773   0.000560
   47  O  3 XY    0.000020   0.000000   0.000000   0.000000   0.000000
   48  O  3 XZ    0.000000   0.000122   0.008658  -0.007336   0.004755
   49  O  3 YZ    0.000009   0.000000   0.000000   0.000000   0.000000

                     11         12         13         14         15
                   -0.4268    -0.3932    -0.3835    -0.3064    -0.2905
                     B1         A1         B2         A2         B1  
    1  S  1  S    0.000000  -0.010876   0.000000   0.000000   0.000000
    2  S  1  S    0.000000   0.047335   0.000000   0.000000   0.000000
    3  S  1  S    0.000000  -0.047845   0.000000   0.000000   0.000000
    4  S  1  S    0.000000  -0.199929   0.000000   0.000000   0.000000
    5  S  1  X   -0.185616   0.000000   0.000000   0.000000  -0.019308
    6  S  1  Y    0.000000   0.000000  -0.213441   0.000000   0.000000
    7  S  1  Z    0.000000  -0.212493   0.000000   0.000000   0.000000
    8  S  1  X    0.438285   0.000000   0.000000   0.000000   0.040011
    9  S  1  Y    0.000000   0.000000   0.503779   0.000000   0.000000
   10  S  1  Z    0.000000   0.500630   0.000000   0.000000   0.000000
   11  S  1  X    0.150746   0.000000   0.000000   0.000000   0.120261
   12  S  1  Y    0.000000   0.000000   0.333684   0.000000   0.000000
   13  S  1  Z    0.000000   0.278656   0.000000   0.000000   0.000000
   14  S  1 XX    0.000000  -0.001070   0.000000   0.000000   0.000000
   15  S  1 YY    0.000000  -0.021458   0.000000   0.000000   0.000000
   16  S  1 ZZ    0.000000   0.022528   0.000000   0.000000   0.000000
   17  S  1 XY    0.000000   0.000000   0.000000  -0.073316   0.000000
   18  S  1 XZ    0.037402   0.000000   0.000000   0.000000  -0.065646
   19  S  1 YZ    0.000000   0.000000   0.026929   0.000000   0.000000
   20  O  2  S   -0.051381   0.023692   0.000000   0.000000  -0.002528
   21  O  2  S    0.107904  -0.049403   0.000000   0.000000   0.000597
   22  O  2  S    0.187001  -0.092036   0.000000   0.000000   0.042031
   23  O  2  X   -0.279990   0.290359   0.000000   0.000000   0.325255
   24  O  2  Y    0.000000   0.000000   0.280728   0.474906   0.000000
   25  O  2  Z    0.212291   0.048312   0.000000   0.000000   0.346665
   26  O  2  X   -0.169596   0.187693   0.000000   0.000000   0.233788
   27  O  2  Y    0.000000   0.000000   0.175456   0.336488   0.000000
   28  O  2  Z    0.132898   0.029889   0.000000   0.000000   0.233328
   29  O  2 XX   -0.005569   0.014147   0.000000   0.000000   0.010535
   30  O  2 YY    0.007656  -0.005193   0.000000   0.000000  -0.000573
   31  O  2 ZZ   -0.002087  -0.008954   0.000000   0.000000  -0.009963
   32  O  2 XY    0.000000   0.000000   0.012449   0.011205   0.000000
   33  O  2 XZ    0.012448  -0.001374   0.000000   0.000000   0.003767
   34  O  2 YZ    0.000000   0.000000  -0.007148  -0.007242   0.000000
   35  O  3  S    0.051381   0.023692   0.000000   0.000000   0.002528
   36  O  3  S   -0.107904  -0.049403   0.000000   0.000000  -0.000597
   37  O  3  S   -0.187001  -0.092036   0.000000   0.000000  -0.042031
   38  O  3  X   -0.279990  -0.290359   0.000000   0.000000   0.325255
   39  O  3  Y    0.000000   0.000000   0.280728  -0.474906   0.000000
   40  O  3  Z   -0.212291   0.048312   0.000000   0.000000  -0.346665
   41  O  3  X   -0.169596  -0.187693   0.000000   0.000000   0.233788
   42  O  3  Y    0.000000   0.000000   0.175456  -0.336488   0.000000
   43  O  3  Z   -0.132898   0.029889   0.000000   0.000000  -0.233328
   44  O  3 XX    0.005569   0.014147   0.000000   0.000000  -0.010535
   45  O  3 YY   -0.007656  -0.005193   0.000000   0.000000   0.000573
   46  O  3 ZZ    0.002087  -0.008954   0.000000   0.000000   0.009963
   47  O  3 XY    0.000000   0.000000  -0.012449   0.011205   0.000000
   48  O  3 XZ    0.012448   0.001374   0.000000   0.000000   0.003767
   49  O  3 YZ    0.000000   0.000000  -0.007148   0.007242   0.000000

                     16         17         18         19         20
                   -0.2877    -0.2349    -0.1435    -0.0864     0.3264
                     A1         B2         A1         B1         B1  
    1  S  1  S    0.014726   0.000000   0.026564   0.000000   0.000000
    2  S  1  S   -0.060217   0.000000  -0.074370   0.000000   0.000000
    3  S  1  S    0.072305   0.000000   0.180435   0.000000   0.000000
    4  S  1  S    0.269493   0.000000   0.353608   0.000000   0.000000
    5  S  1  X    0.000000   0.000000   0.000000  -0.222151   0.271089
    6  S  1  Y    0.000000  -0.195955   0.000000   0.000000   0.000000
    7  S  1  Z    0.048011   0.000000  -0.192268   0.000000   0.000000
    8  S  1  X    0.000000   0.000000   0.000000   0.565722  -1.047635
    9  S  1  Y    0.000000   0.487583   0.000000   0.000000   0.000000
   10  S  1  Z   -0.119239   0.000000   0.489089   0.000000   0.000000
   11  S  1  X    0.000000   0.000000   0.000000   0.723845   1.486099
   12  S  1  Y    0.000000   0.353648   0.000000   0.000000   0.000000
   13  S  1  Z   -0.010449   0.000000   0.492755   0.000000   0.000000
   14  S  1 XX   -0.097412   0.000000  -0.078370   0.000000   0.000000
   15  S  1 YY    0.036069   0.000000   0.088713   0.000000   0.000000
   16  S  1 ZZ    0.061344   0.000000  -0.010343   0.000000   0.000000
   17  S  1 XY    0.000000   0.000000   0.000000   0.000000   0.000000
   18  S  1 XZ    0.000000   0.000000   0.000000  -0.140249  -0.142377
   19  S  1 YZ    0.000000  -0.035347   0.000000   0.000000   0.000000
   20  O  2  S   -0.001917   0.000000   0.028763  -0.039356  -0.014385
   21  O  2  S    0.008426   0.000000  -0.056373   0.069680  -0.032052
   22  O  2  S   -0.021457   0.000000  -0.195070   0.315806   0.461125
   23  O  2  X   -0.026591   0.000000  -0.403129   0.197930  -0.230935
   24  O  2  Y    0.000000  -0.401720   0.000000   0.000000   0.000000
   25  O  2  Z    0.466399   0.000000  -0.004139  -0.291729   0.024769
   26  O  2  X   -0.025167   0.000000  -0.338438   0.208886   0.152361
   27  O  2  Y    0.000000  -0.297884   0.000000   0.000000   0.000000
   28  O  2  Z    0.337500   0.000000   0.003417  -0.255708  -0.146516
   29  O  2 XX    0.003545   0.000000   0.002501   0.003757   0.031123
   30  O  2 YY    0.003632   0.000000   0.001112   0.001154  -0.022300
   31  O  2 ZZ   -0.007177   0.000000  -0.003613  -0.004910  -0.008823
   32  O  2 XY    0.000000  -0.001430   0.000000   0.000000   0.000000
   33  O  2 XZ    0.010144   0.000000   0.003198   0.002727  -0.033181
   34  O  2 YZ    0.000000   0.000722   0.000000   0.000000   0.000000
   35  O  3  S   -0.001917   0.000000   0.028763   0.039356   0.014385
   36  O  3  S    0.008426   0.000000  -0.056373  -0.069680   0.032052
   37  O  3  S   -0.021457   0.000000  -0.195070  -0.315806  -0.461125
   38  O  3  X    0.026591   0.000000   0.403129   0.197930  -0.230935
   39  O  3  Y    0.000000  -0.401720   0.000000   0.000000   0.000000
   40  O  3  Z    0.466399   0.000000  -0.004139   0.291729  -0.024769
   41  O  3  X    0.025167   0.000000   0.338438   0.208886   0.152361
   42  O  3  Y    0.000000  -0.297884   0.000000   0.000000   0.000000
   43  O  3  Z    0.337500   0.000000   0.003417   0.255708   0.146516
   44  O  3 XX    0.003545   0.000000   0.002501  -0.003757  -0.031123
   45  O  3 YY    0.003632   0.000000   0.001112  -0.001154   0.022300
   46  O  3 ZZ   -0.007177   0.000000  -0.003613   0.004910   0.008823
   47  O  3 XY    0.000000   0.001430   0.000000   0.000000   0.000000
   48  O  3 XZ   -0.010144   0.000000  -0.003198   0.002727  -0.033181
   49  O  3 YZ    0.000000   0.000722   0.000000   0.000000   0.000000

                     21         22         23         24         25
                    0.3571     0.3653     0.3959     0.4672     0.4837
                     A1         B2         A1         A2         A1  
    1  S  1  S    0.003448   0.000000  -0.105817   0.000000   0.011545
    2  S  1  S   -0.038981   0.000000  -0.383589   0.000000   0.043769
    3  S  1  S   -0.011310   0.000000  -1.636917   0.000000   0.181248
    4  S  1  S    0.249849   0.000000   1.964535   0.000000  -0.228043
    5  S  1  X    0.000000   0.000000   0.000000   0.000000   0.000000
    6  S  1  Y    0.000000   0.294291   0.000000   0.000000   0.000000
    7  S  1  Z    0.282617   0.000000  -0.021594   0.000000   0.050545
    8  S  1  X    0.000000   0.000000   0.000000   0.000000   0.000000
    9  S  1  Y    0.000000  -1.137983   0.000000   0.000000   0.000000
   10  S  1  Z   -1.095359   0.000000   0.072928   0.000000  -0.187752
   11  S  1  X    0.000000   0.000000   0.000000   0.000000   0.000000
   12  S  1  Y    0.000000   1.224493   0.000000   0.000000   0.000000
   13  S  1  Z    1.333560   0.000000   0.102809   0.000000   0.104050
   14  S  1 XX    0.020578   0.000000  -0.364928   0.000000  -0.329099
   15  S  1 YY    0.152185   0.000000   0.283988   0.000000  -0.548981
   16  S  1 ZZ   -0.172762   0.000000   0.080940   0.000000   0.878080
   17  S  1 XY    0.000000   0.000000   0.000000   0.870980   0.000000
   18  S  1 XZ    0.000000   0.000000   0.000000   0.000000   0.000000
   19  S  1 YZ    0.000000  -0.156148   0.000000   0.000000   0.000000
   20  O  2  S    0.011551   0.000000   0.014874   0.000000  -0.004374
   21  O  2  S    0.005595   0.000000  -0.033571   0.000000   0.017834
   22  O  2  S   -0.270389   0.000000  -0.220709   0.000000   0.010955
   23  O  2  X    0.065966   0.000000   0.029790   0.000000  -0.126835
   24  O  2  Y    0.000000  -0.082007   0.000000   0.312421   0.000000
   25  O  2  Z   -0.114636   0.000000  -0.135653   0.000000  -0.244887
   26  O  2  X   -0.182610   0.000000  -0.139668   0.000000   0.111443
   27  O  2  Y    0.000000  -0.091476   0.000000  -0.186490   0.000000
   28  O  2  Z   -0.010389   0.000000   0.120345   0.000000   0.124653
   29  O  2 XX   -0.024027   0.000000  -0.017623   0.000000   0.031287
   30  O  2 YY    0.015454   0.000000   0.026137   0.000000  -0.008409
   31  O  2 ZZ    0.008573   0.000000  -0.008514   0.000000  -0.022878
   32  O  2 XY    0.000000  -0.010530   0.000000  -0.041334   0.000000
   33  O  2 XZ    0.013640   0.000000   0.042381   0.000000   0.025242
   34  O  2 YZ    0.000000   0.003886   0.000000   0.031555   0.000000
   35  O  3  S    0.011551   0.000000   0.014874   0.000000  -0.004374
   36  O  3  S    0.005595   0.000000  -0.033571   0.000000   0.017834
   37  O  3  S   -0.270389   0.000000  -0.220709   0.000000   0.010955
   38  O  3  X   -0.065966   0.000000  -0.029790   0.000000   0.126835
   39  O  3  Y    0.000000  -0.082007   0.000000  -0.312421   0.000000
   40  O  3  Z   -0.114636   0.000000  -0.135653   0.000000  -0.244887
   41  O  3  X    0.182610   0.000000   0.139668   0.000000  -0.111443
   42  O  3  Y    0.000000  -0.091476   0.000000   0.186490   0.000000
   43  O  3  Z   -0.010389   0.000000   0.120345   0.000000   0.124653
   44  O  3 XX   -0.024027   0.000000  -0.017623   0.000000   0.031287
   45  O  3 YY    0.015454   0.000000   0.026137   0.000000  -0.008409
   46  O  3 ZZ    0.008573   0.000000  -0.008514   0.000000  -0.022878
   47  O  3 XY    0.000000   0.010530   0.000000  -0.041334   0.000000
   48  O  3 XZ   -0.013640   0.000000  -0.042381   0.000000  -0.025242
   49  O  3 YZ    0.000000   0.003886   0.000000  -0.031555   0.000000

                     26         27         28         29         30
                    0.4888     0.6484     0.6490     0.7972     0.8068
                     B2         A1         B1         A2         A1  
    1  S  1  S    0.000000  -0.047816   0.000000   0.000000  -0.028643
    2  S  1  S    0.000000  -0.256170   0.000000   0.000000  -0.066208
    3  S  1  S    0.000000  -0.846098   0.000000   0.000000  -0.411012
    4  S  1  S    0.000000   1.428887   0.000000   0.000000  -0.075015
    5  S  1  X    0.000000   0.000000   0.011210   0.000000   0.000000
    6  S  1  Y    0.042543   0.000000   0.000000   0.000000   0.000000
    7  S  1  Z    0.000000  -0.001647   0.000000   0.000000   0.043810
    8  S  1  X    0.000000   0.000000  -0.074918   0.000000   0.000000
    9  S  1  Y   -0.159514   0.000000   0.000000   0.000000   0.000000
   10  S  1  Z    0.000000  -0.020059   0.000000   0.000000  -0.228927
   11  S  1  X    0.000000   0.000000   0.760025   0.000000   0.000000
   12  S  1  Y    0.109188   0.000000   0.000000   0.000000   0.000000
   13  S  1  Z    0.000000   0.462155   0.000000   0.000000  -0.089808
   14  S  1 XX    0.000000   0.772810   0.000000   0.000000   0.261069
   15  S  1 YY    0.000000  -0.766453   0.000000   0.000000  -0.079169
   16  S  1 ZZ    0.000000  -0.006357   0.000000   0.000000  -0.181900
   17  S  1 XY    0.000000   0.000000   0.000000   0.506126   0.000000
   18  S  1 XZ    0.000000   0.000000   0.945562   0.000000   0.000000
   19  S  1 YZ    0.931052   0.000000   0.000000   0.000000   0.000000
   20  O  2  S    0.000000   0.055762  -0.054765   0.000000  -0.012752
   21  O  2  S    0.000000  -0.295157   0.276828   0.000000   0.127857
   22  O  2  S    0.000000  -0.162966   0.177644   0.000000  -0.066707
   23  O  2  X    0.000000   0.070396   0.036030   0.000000  -0.596181
   24  O  2  Y   -0.219154   0.000000   0.000000  -0.567995   0.000000
   25  O  2  Z    0.000000   0.085979   0.137680   0.000000   0.111835
   26  O  2  X    0.000000  -0.481088   0.338609   0.000000   0.787499
   27  O  2  Y    0.132639   0.000000   0.000000   0.733541   0.000000
   28  O  2  Z    0.000000   0.122570  -0.368825   0.000000  -0.124989
   29  O  2 XX    0.000000  -0.008787  -0.041752   0.000000  -0.039752
   30  O  2 YY    0.000000  -0.013600   0.011003   0.000000   0.012199
   31  O  2 ZZ    0.000000   0.022387   0.030749   0.000000   0.027553
   32  O  2 XY    0.033037   0.000000   0.000000  -0.037848   0.000000
   33  O  2 XZ    0.000000  -0.014971   0.011259   0.000000   0.007150
   34  O  2 YZ   -0.004429   0.000000   0.000000   0.026695   0.000000
   35  O  3  S    0.000000   0.055762   0.054765   0.000000  -0.012752
   36  O  3  S    0.000000  -0.295157  -0.276828   0.000000   0.127857
   37  O  3  S    0.000000  -0.162966  -0.177644   0.000000  -0.066707
   38  O  3  X    0.000000  -0.070396   0.036030   0.000000   0.596181
   39  O  3  Y   -0.219154   0.000000   0.000000   0.567995   0.000000
   40  O  3  Z    0.000000   0.085979  -0.137680   0.000000   0.111835
   41  O  3  X    0.000000   0.481088   0.338609   0.000000  -0.787499
   42  O  3  Y    0.132639   0.000000   0.000000  -0.733541   0.000000
   43  O  3  Z    0.000000   0.122570   0.368825   0.000000  -0.124989
   44  O  3 XX    0.000000  -0.008787   0.041752   0.000000  -0.039752
   45  O  3 YY    0.000000  -0.013600  -0.011003   0.000000   0.012199
   46  O  3 ZZ    0.000000   0.022387  -0.030749   0.000000   0.027553
   47  O  3 XY   -0.033037   0.000000   0.000000  -0.037848   0.000000
   48  O  3 XZ    0.000000   0.014971   0.011259   0.000000  -0.007150
   49  O  3 YZ   -0.004429   0.000000   0.000000  -0.026695   0.000000

                     31         32         33         34         35
                    0.8068     0.8255     0.8311     0.8384     1.5393
                     B1         B2         A1         B1         B1  
    1  S  1  S    0.000000   0.000000   0.012434   0.000000   0.000000
    2  S  1  S    0.000000   0.000000   0.035204   0.000000   0.000000
    3  S  1  S    0.000000   0.000000   0.187219   0.000000   0.000000
    4  S  1  S    0.000000   0.000000   0.010278   0.000000   0.000000
    5  S  1  X    0.006516   0.000000   0.000000  -0.102973  -0.022354
    6  S  1  Y    0.000000  -0.030583   0.000000   0.000000   0.000000
    7  S  1  Z    0.000000   0.000000  -0.047625   0.000000   0.000000
    8  S  1  X   -0.024744   0.000000   0.000000   0.545075   0.077863
    9  S  1  Y    0.000000   0.161200   0.000000   0.000000   0.000000
   10  S  1  Z    0.000000   0.000000   0.250957   0.000000   0.000000
   11  S  1  X   -0.225064   0.000000   0.000000  -0.290992   1.039939
   12  S  1  Y    0.000000  -0.542155   0.000000   0.000000   0.000000
   13  S  1  Z    0.000000   0.000000  -0.461849   0.000000   0.000000
   14  S  1 XX    0.000000   0.000000   0.352054   0.000000   0.000000
   15  S  1 YY    0.000000   0.000000   0.064037   0.000000   0.000000
   16  S  1 ZZ    0.000000   0.000000  -0.416091   0.000000   0.000000
   17  S  1 XY    0.000000   0.000000   0.000000   0.000000   0.000000
   18  S  1 XZ    0.310945   0.000000   0.000000  -0.138550   0.404900
   19  S  1 YZ    0.000000  -0.339595   0.000000   0.000000   0.000000
   20  O  2  S    0.001619   0.000000   0.004148  -0.007825   0.013408
   21  O  2  S   -0.035115   0.000000  -0.020602   0.105820  -1.144746
   22  O  2  S   -0.012790   0.000000   0.056229  -0.149837   1.602483
   23  O  2  X   -0.188374   0.000000  -0.070069  -0.586443  -0.054747
   24  O  2  Y    0.000000  -0.599305   0.000000   0.000000   0.000000
   25  O  2  Z   -0.587323   0.000000  -0.563280   0.177527   0.099903
   26  O  2  X    0.271838   0.000000   0.081603   0.752118   0.378384
   27  O  2  Y    0.000000   0.834169   0.000000   0.000000   0.000000
   28  O  2  Z    0.720639   0.000000   0.803603  -0.226885  -0.394987
   29  O  2 XX   -0.027958   0.000000  -0.012769  -0.020831  -0.101386
   30  O  2 YY    0.007251   0.000000  -0.017366   0.024617   0.092531
   31  O  2 ZZ    0.020707   0.000000   0.030135  -0.003786   0.008854
   32  O  2 XY    0.000000  -0.034066   0.000000   0.000000   0.000000
   33  O  2 XZ   -0.000378   0.000000  -0.054597   0.032969   0.156133
   34  O  2 YZ    0.000000   0.012790   0.000000   0.000000   0.000000
   35  O  3  S   -0.001619   0.000000   0.004148   0.007825  -0.013408
   36  O  3  S    0.035115   0.000000  -0.020602  -0.105820   1.144746
   37  O  3  S    0.012790   0.000000   0.056229   0.149837  -1.602483
   38  O  3  X   -0.188374   0.000000   0.070069  -0.586443  -0.054747
   39  O  3  Y    0.000000  -0.599305   0.000000   0.000000   0.000000
   40  O  3  Z    0.587323   0.000000  -0.563280  -0.177527  -0.099903
   41  O  3  X    0.271838   0.000000  -0.081603   0.752118   0.378384
   42  O  3  Y    0.000000   0.834169   0.000000   0.000000   0.000000
   43  O  3  Z   -0.720639   0.000000   0.803603   0.226885   0.394987
   44  O  3 XX    0.027958   0.000000  -0.012769   0.020831   0.101386
   45  O  3 YY   -0.007251   0.000000  -0.017366  -0.024617  -0.092531
   46  O  3 ZZ   -0.020707   0.000000   0.030135   0.003786  -0.008854
   47  O  3 XY    0.000000   0.034066   0.000000   0.000000   0.000000
   48  O  3 XZ   -0.000378   0.000000   0.054597   0.032969   0.156133
   49  O  3 YZ    0.000000   0.012790   0.000000   0.000000   0.000000

                     36         37         38         39         40
                    1.5990     2.0858     2.0868     2.0890     2.0913
                     A1         B1         A2         B2         A1  
    1  S  1  S   -0.028584   0.000000   0.000000   0.000000  -0.000807
    2  S  1  S   -0.279568   0.000000   0.000000   0.000000  -0.002926
    3  S  1  S   -0.657487   0.000000   0.000000   0.000000  -0.012566
    4  S  1  S    1.674924   0.000000   0.000000   0.000000   0.014905
    5  S  1  X    0.000000  -0.005041   0.000000   0.000000   0.000000
    6  S  1  Y    0.000000   0.000000   0.000000  -0.003876   0.000000
    7  S  1  Z   -0.011080   0.000000   0.000000   0.000000   0.001760
    8  S  1  X    0.000000   0.006386   0.000000   0.000000   0.000000
    9  S  1  Y    0.000000   0.000000   0.000000   0.003915   0.000000
   10  S  1  Z    0.037128   0.000000   0.000000   0.000000  -0.006103
   11  S  1  X    0.000000   0.093277   0.000000   0.000000   0.000000
   12  S  1  Y    0.000000   0.000000   0.000000   0.038500   0.000000
   13  S  1  Z    0.681937   0.000000   0.000000   0.000000   0.004218
   14  S  1 XX    0.323949   0.000000   0.000000   0.000000   0.014660
   15  S  1 YY   -0.300285   0.000000   0.000000   0.000000  -0.035742
   16  S  1 ZZ   -0.023665   0.000000   0.000000   0.000000   0.021082
   17  S  1 XY    0.000000   0.000000   0.037272   0.000000   0.000000
   18  S  1 XZ    0.000000  -0.039941   0.000000   0.000000   0.000000
   19  S  1 YZ    0.000000   0.000000   0.000000   0.003677   0.000000
   20  O  2  S   -0.009705   0.000385   0.000000   0.000000   0.000922
   21  O  2  S    1.116554  -0.047369   0.000000   0.000000   0.002082
   22  O  2  S   -1.577011   0.078009   0.000000   0.000000  -0.010074
   23  O  2  X    0.122949   0.003937   0.000000   0.000000  -0.004720
   24  O  2  Y    0.000000   0.000000  -0.006674   0.010762   0.000000
   25  O  2  Z   -0.003757   0.020786   0.000000   0.000000   0.000620
   26  O  2  X   -0.606318   0.005129   0.000000   0.000000   0.000480
   27  O  2  Y    0.000000   0.000000   0.010042  -0.018776   0.000000
   28  O  2  Z    0.158001  -0.039820   0.000000   0.000000   0.001072
   29  O  2 XX    0.176899  -0.435399   0.000000   0.000000  -0.124231
   30  O  2 YY   -0.120341   0.499616   0.000000   0.000000   0.602973
   31  O  2 ZZ   -0.056558  -0.064217   0.000000   0.000000  -0.478742
   32  O  2 XY    0.000000   0.000000   0.496950   0.167857   0.000000
   33  O  2 XZ   -0.134541  -0.453002   0.000000   0.000000  -0.307263
   34  O  2 YZ    0.000000   0.000000   0.503185   0.687221   0.000000
   35  O  3  S   -0.009705  -0.000385   0.000000   0.000000   0.000922
   36  O  3  S    1.116554   0.047369   0.000000   0.000000   0.002082
   37  O  3  S   -1.577011  -0.078009   0.000000   0.000000  -0.010074
   38  O  3  X   -0.122949   0.003937   0.000000   0.000000   0.004720
   39  O  3  Y    0.000000   0.000000   0.006674   0.010762   0.000000
   40  O  3  Z   -0.003757  -0.020786   0.000000   0.000000   0.000620
   41  O  3  X    0.606318   0.005129   0.000000   0.000000  -0.000480
   42  O  3  Y    0.000000   0.000000  -0.010042  -0.018776   0.000000
   43  O  3  Z    0.158001   0.039820   0.000000   0.000000   0.001072
   44  O  3 XX    0.176899   0.435399   0.000000   0.000000  -0.124231
   45  O  3 YY   -0.120341  -0.499616   0.000000   0.000000   0.602973
   46  O  3 ZZ   -0.056558   0.064217   0.000000   0.000000  -0.478742
   47  O  3 XY    0.000000   0.000000   0.496950  -0.167857   0.000000
   48  O  3 XZ    0.134541  -0.453002   0.000000   0.000000   0.307263
   49  O  3 YZ    0.000000   0.000000  -0.503185   0.687221   0.000000

                     41         42         43         44         45
                    2.0944     2.1111     2.1265     2.1744     2.4018
                     B1         B2         A2         A1         A1  
    1  S  1  S    0.000000   0.000000   0.000000   0.003027   0.006299
    2  S  1  S    0.000000   0.000000   0.000000   0.050010  -0.160242
    3  S  1  S    0.000000   0.000000   0.000000   0.095231  -0.129960
    4  S  1  S    0.000000   0.000000   0.000000  -0.295500   0.967162
    5  S  1  X   -0.018505   0.000000   0.000000   0.000000   0.000000
    6  S  1  Y    0.000000   0.012351   0.000000   0.000000   0.000000
    7  S  1  Z    0.000000   0.000000   0.000000   0.018056  -0.074395
    8  S  1  X    0.053916   0.000000   0.000000   0.000000   0.000000
    9  S  1  Y    0.000000  -0.008021   0.000000   0.000000   0.000000
   10  S  1  Z    0.000000   0.000000   0.000000  -0.029943   0.278955
   11  S  1  X    0.134991   0.000000   0.000000   0.000000   0.000000
   12  S  1  Y    0.000000  -0.149080   0.000000   0.000000   0.000000
   13  S  1  Z    0.000000   0.000000   0.000000  -0.258142   0.272285
   14  S  1 XX    0.000000   0.000000   0.000000   0.134582   0.455788
   15  S  1 YY    0.000000   0.000000   0.000000   0.071786  -0.361772
   16  S  1 ZZ    0.000000   0.000000   0.000000  -0.206368  -0.094016
   17  S  1 XY    0.000000   0.000000   0.229508   0.000000   0.000000
   18  S  1 XZ   -0.052111   0.000000   0.000000   0.000000   0.000000
   19  S  1 YZ    0.000000  -0.147903   0.000000   0.000000   0.000000
   20  O  2  S   -0.000318   0.000000   0.000000  -0.000435   0.008891
   21  O  2  S   -0.090468   0.000000   0.000000  -0.158529   0.509860
   22  O  2  S    0.145634   0.000000   0.000000   0.259152  -0.820094
   23  O  2  X   -0.007941   0.000000   0.000000  -0.054188   0.098700
   24  O  2  Y    0.000000  -0.043370  -0.030100   0.000000   0.000000
   25  O  2  Z    0.033137   0.000000   0.000000  -0.031080  -0.048684
   26  O  2  X    0.036972   0.000000   0.000000   0.164742  -0.455527
   27  O  2  Y    0.000000   0.086197   0.052616   0.000000   0.000000
   28  O  2  Z   -0.067357   0.000000   0.000000   0.049468   0.228079
   29  O  2 XX   -0.306901   0.000000   0.000000   0.564173  -0.398830
   30  O  2 YY   -0.382908   0.000000   0.000000  -0.042923   0.365730
   31  O  2 ZZ    0.689809   0.000000   0.000000  -0.521250   0.033100
   32  O  2 XY    0.000000   0.690621   0.505491   0.000000   0.000000
   33  O  2 XZ   -0.151964   0.000000   0.000000   0.331616   0.555713
   34  O  2 YZ    0.000000  -0.171269  -0.497749   0.000000   0.000000
   35  O  3  S    0.000318   0.000000   0.000000  -0.000435   0.008891
   36  O  3  S    0.090468   0.000000   0.000000  -0.158529   0.509860
   37  O  3  S   -0.145634   0.000000   0.000000   0.259152  -0.820094
   38  O  3  X   -0.007941   0.000000   0.000000   0.054188  -0.098700
   39  O  3  Y    0.000000  -0.043370   0.030100   0.000000   0.000000
   40  O  3  Z   -0.033137   0.000000   0.000000  -0.031080  -0.048684
   41  O  3  X    0.036972   0.000000   0.000000  -0.164742   0.455527
   42  O  3  Y    0.000000   0.086197  -0.052616   0.000000   0.000000
   43  O  3  Z    0.067357   0.000000   0.000000   0.049468   0.228079
   44  O  3 XX    0.306901   0.000000   0.000000   0.564173  -0.398830
   45  O  3 YY    0.382908   0.000000   0.000000  -0.042923   0.365730
   46  O  3 ZZ   -0.689809   0.000000   0.000000  -0.521250   0.033100
   47  O  3 XY    0.000000  -0.690621   0.505491   0.000000   0.000000
   48  O  3 XZ   -0.151964   0.000000   0.000000  -0.331616  -0.555713
   49  O  3 YZ    0.000000  -0.171269   0.497749   0.000000   0.000000

                     46
                    2.4430
                     B1  
    1  S  1  S    0.000000
    2  S  1  S    0.000000
    3  S  1  S    0.000000
    4  S  1  S    0.000000
    5  S  1  X   -0.125614
    6  S  1  Y    0.000000
    7  S  1  Z    0.000000
    8  S  1  X    0.467037
    9  S  1  Y    0.000000
   10  S  1  Z    0.000000
   11  S  1  X    0.368103
   12  S  1  Y    0.000000
   13  S  1  Z    0.000000
   14  S  1 XX    0.000000
   15  S  1 YY    0.000000
   16  S  1 ZZ    0.000000
   17  S  1 XY    0.000000
   18  S  1 XZ    0.502584
   19  S  1 YZ    0.000000
   20  O  2  S   -0.009239
   21  O  2  S   -0.433612
   22  O  2  S    0.700304
   23  O  2  X   -0.071653
   24  O  2  Y    0.000000
   25  O  2  Z    0.047271
   26  O  2  X    0.363604
   27  O  2  Y    0.000000
   28  O  2  Z   -0.234339
   29  O  2 XX    0.483007
   30  O  2 YY   -0.330294
   31  O  2 ZZ   -0.152713
   32  O  2 XY    0.000000
   33  O  2 XZ   -0.529297
   34  O  2 YZ    0.000000
   35  O  3  S    0.009239
   36  O  3  S    0.433612
   37  O  3  S   -0.700304
   38  O  3  X   -0.071653
   39  O  3  Y    0.000000
   40  O  3  Z   -0.047271
   41  O  3  X    0.363604
   42  O  3  Y    0.000000
   43  O  3  Z    0.234339
   44  O  3 XX   -0.483007
   45  O  3 YY    0.330294
   46  O  3 ZZ    0.152713
   47  O  3 XY    0.000000
   48  O  3 XZ   -0.529297
   49  O  3 YZ    0.000000
 ...... END OF RHF CALCULATION ......
 STEP CPU TIME =     4.23 TOTAL CPU TIME =        4.4 (    0.1 MIN)
 TOTAL WALL CLOCK TIME=        4.4 SECONDS, CPU UTILIZATION IS 100.00%

     ---------------------------------------------------------------------
     PROPERTIES FOR THE PBE      DFT FUNCTIONAL (RHF  TYPE) DENSITY MATRIX
     ---------------------------------------------------------------------

          -----------------
          ENERGY COMPONENTS
          -----------------

         WAVEFUNCTION NORMALIZATION =       1.0000000000

                ONE ELECTRON ENERGY =    -926.8336215593
                TWO ELECTRON ENERGY =     292.5446069928
           NUCLEAR REPULSION ENERGY =      86.1237199736
                                      ------------------
                       TOTAL ENERGY =    -548.1652945928

 ELECTRON-ELECTRON POTENTIAL ENERGY =     292.5446069928
  NUCLEUS-ELECTRON POTENTIAL ENERGY =   -1473.5156472429
   NUCLEUS-NUCLEUS POTENTIAL ENERGY =      86.1237199736
                                      ------------------
             TOTAL POTENTIAL ENERGY =   -1094.8473202764
               TOTAL KINETIC ENERGY =     546.6820256836
                 VIRIAL RATIO (V/T) =       2.0027132206

          ---------------------------------------
          MULLIKEN AND LOWDIN POPULATION ANALYSES
          ---------------------------------------

     ATOMIC MULLIKEN POPULATION IN EACH MOLECULAR ORBITAL

                      1          2          3          4          5

                  2.000000   2.000000   2.000000   2.000000   2.000000

    1             1.999999   0.000682   0.000692   2.000043   1.999987
    2             0.000000   0.999659   0.999654  -0.000021   0.000006
    3             0.000000   0.999659   0.999654  -0.000021   0.000006

                      6          7          8          9         10

                  2.000000   2.000000   2.000000   2.000000   2.000000

    1             2.000003   1.999978   0.530954   0.157476   1.310513
    2            -0.000001   0.000011   0.734523   0.921262   0.344744
    3            -0.000001   0.000011   0.734523   0.921262   0.344744

                     11         12         13         14         15

                  2.000000   2.000000   2.000000   2.000000   2.000000

    1             0.640618   1.118803   1.212929   0.030942   0.073352
    2             0.679691   0.440599   0.393535   0.984529   0.963324
    3             0.679691   0.440599   0.393535   0.984529   0.963324

                     16

                  2.000000

    1             0.159558
    2             0.920221
    3             0.920221

               ----- POPULATIONS IN EACH AO -----
                             MULLIKEN      LOWDIN
              1  S  1  S      2.00021     1.99604
              2  S  1  S      2.01054     1.97440
              3  S  1  S      1.01550     0.64584
              4  S  1  S      0.87918     0.55798
              5  S  1  X      1.99613     1.95246
              6  S  1  Y      1.99632     1.95663
              7  S  1  Z      1.99663     1.95852
              8  S  1  X      0.62751     0.58082
              9  S  1  Y      0.69657     0.67536
             10  S  1  Z      0.75271     0.72469
             11  S  1  X      0.19797     0.32768
             12  S  1  Y      0.51625     0.56134
             13  S  1  Z      0.39318     0.48853
             14  S  1 XX      0.02492     0.24750
             15  S  1 YY      0.04766     0.25924
             16  S  1 ZZ      0.03094     0.25421
             17  S  1 XY      0.05051     0.03563
             18  S  1 XZ      0.00379     0.06525
             19  S  1 YZ      0.00000     0.00363
             20  O  2  S      1.99804     1.98135
             21  O  2  S      0.85797     0.67352
             22  O  2  S      1.11480     0.61275
             23  O  2  X      0.79258     0.75310
             24  O  2  Y      0.82473     0.79453
             25  O  2  Z      1.05567     1.02375
             26  O  2  X      0.50979     0.58371
             27  O  2  Y      0.55111     0.58644
             28  O  2  Z      0.66772     0.71583
             29  O  2 XX      0.00125     0.21269
             30  O  2 YY      0.00262     0.21420
             31  O  2 ZZ      0.00165     0.20799
             32  O  2 XY      0.00324     0.00205
             33  O  2 XZ      0.00058     0.00454
             34  O  2 YZ      0.00000     0.00070
             35  O  3  S      1.99804     1.98135
             36  O  3  S      0.85797     0.67352
             37  O  3  S      1.11480     0.61275
             38  O  3  X      0.79258     0.75310
             39  O  3  Y      0.82473     0.79453
             40  O  3  Z      1.05567     1.02375
             41  O  3  X      0.50979     0.58371
             42  O  3  Y      0.55111     0.58644
             43  O  3  Z      0.66772     0.71583
             44  O  3 XX      0.00125     0.21269
             45  O  3 YY      0.00262     0.21420
             46  O  3 ZZ      0.00165     0.20799
             47  O  3 XY      0.00324     0.00205
             48  O  3 XZ      0.00058     0.00454
             49  O  3 YZ      0.00000     0.00070

          ----- MULLIKEN ATOMIC OVERLAP POPULATIONS -----
          (OFF-DIAGONAL ELEMENTS NEED TO BE MULTIPLIED BY 2)

             1           2           3

    1   14.7809123
    2    0.2278079   8.1671302
    3    0.2278079  -0.0132022   8.1671302

          TOTAL MULLIKEN AND LOWDIN ATOMIC POPULATIONS
       ATOM         MULL.POP.    CHARGE          LOW.POP.     CHARGE
    1 S            15.236528    0.763472        15.265728    0.734272
    2 O             8.381736   -0.381736         8.367136   -0.367136
    3 O             8.381736   -0.381736         8.367136   -0.367136

          MULLIKEN SPHERICAL HARMONIC POPULATIONS
       ATOM           S       P       D      F      G      H      I    TOTAL
    1 S             5.91    9.17    0.16   0.00   0.00   0.00   0.00   15.24
    2 O             3.97    4.40    0.01   0.00   0.00   0.00   0.00    8.38
    3 O             3.97    4.40    0.01   0.00   0.00   0.00   0.00    8.38

          -------------------------------
          BOND ORDER AND VALENCE ANALYSIS     BOND ORDER THRESHOLD=0.050
          -------------------------------

                   BOND                       BOND                       BOND
  ATOM PAIR DIST  ORDER      ATOM PAIR DIST  ORDER      ATOM PAIR DIST  ORDER
    1   2  1.800  1.585        1   3  1.800  1.585        2   3  3.118  0.537

                       TOTAL       BONDED        FREE
      ATOM            VALENCE     VALENCE     VALENCE
    1 S                 3.169       3.169       0.000
    2 O                 2.121       2.121       0.000
    3 O                 2.121       2.121       0.000

          ---------------------
          ELECTROSTATIC MOMENTS
          ---------------------

 POINT   1           X           Y           Z (BOHR)    CHARGE
                 0.000000    0.000000    0.000000        0.00 (A.U.)
         DX          DY          DZ         /D/  (DEBYE)
     0.000000    0.000000   -2.209901    2.209901
 ...... END OF PROPERTY EVALUATION ......
 STEP CPU TIME =     0.00 TOTAL CPU TIME =        4.4 (    0.1 MIN)
 TOTAL WALL CLOCK TIME=        4.4 SECONDS, CPU UTILIZATION IS  99.77%
               580000  WORDS OF DYNAMIC MEMORY USED
 EXECUTION OF GAMESS TERMINATED NORMALLY Thu Feb 26 00:20:37 2015
 DDI: 263624 bytes (0.3 MB / 0 MWords) used by master data server.

 ----------------------------------------
 CPU timing information for all processes
 ========================================
 0: 4.378 + 0.32 = 4.411
 ----------------------------------------
 ddikick.x: exited gracefully.
----- accounting info -----
Files used on the master node dftfe.crc.nd.edu were:
-rw-r--r-- 1 pmehta1 campus   37475 Feb 26 00:20 /tmp/gamess.dat
-rw-r--r-- 1 pmehta1 campus     142 Feb 26 00:20 /tmp/gamess.F05
-rw-r--r-- 1 pmehta1 campus 1980264 Feb 26 00:20 /tmp/gamess.F08
-rw-r--r-- 1 pmehta1 campus 1220440 Feb 26 00:20 /tmp/gamess.F10
Thu Feb 26 00:20:40 EST 2015
0.234u 0.184s 0:07.86 5.2%	0+0k 0+112io 0pf+0w
