----- GAMESS execution script 'rungms' -----
This job is running on host dftfe.crc.nd.edu
under operating system Linux at Thu Feb 26 00:12:47 EST 2015
Available scratch disk space (Kbyte units) at beginning of the job is
Filesystem     1K-blocks     Used Available Use% Mounted on
/dev/sda2      147771864 22810200 117455232  17% /
GAMESS temporary binary files will be written to /tmp
GAMESS supplementary output files will be written to /tmp
Copying input file gamess.inp to your run's scratch directory...

 Distributed Data Interface kickoff program.
 Initiating 1 compute processes on 1 nodes to run the following command:
 /opt/crc/gamess/2012R1/gamess/gamess.00.x gamess 

          ******************************************************
          *         GAMESS VERSION =  1 MAY 2012 (R1)          *
          *             FROM IOWA STATE UNIVERSITY             *
          * M.W.SCHMIDT, K.K.BALDRIDGE, J.A.BOATZ, S.T.ELBERT, *
          *   M.S.GORDON, J.H.JENSEN, S.KOSEKI, N.MATSUNAGA,   *
          *          K.A.NGUYEN, S.J.SU, T.L.WINDUS,           *
          *       TOGETHER WITH M.DUPUIS, J.A.MONTGOMERY       *
          *         J.COMPUT.CHEM.  14, 1347-1363(1993)        *
          **************** 64 BIT LINUX VERSION ****************

  SINCE 1993, STUDENTS AND POSTDOCS WORKING AT IOWA STATE UNIVERSITY
  AND ALSO IN THEIR VARIOUS JOBS AFTER LEAVING ISU HAVE MADE IMPORTANT
  CONTRIBUTIONS TO THE CODE:
     IVANA ADAMOVIC, CHRISTINE AIKENS, YURI ALEXEEV, POOJA ARORA,
     ANDREY ASADCHEV, ROB BELL, PRADIPTA BANDYOPADHYAY, JONATHAN BENTZ,
     BRETT BODE, GALINA CHABAN, WEI CHEN, CHEOL HO CHOI, PAUL DAY,
     ALBERT DEFUSCO, TIM DUDLEY, DMITRI FEDOROV, GRAHAM FLETCHER,
     MARK FREITAG, KURT GLAESEMANN, DAN KEMP, GRANT MERRILL,
     NORIYUKI MINEZAWA, JONATHAN MULLIN, TAKESHI NAGATA,
     SEAN NEDD, HEATHER NETZLOFF, BOSILJKA NJEGIC, RYAN OLSON, MIKE PAK,
     JIM SHOEMAKER, LYUDMILA SLIPCHENKO, SAROM SOK, JIE SONG,
     TETSUYA TAKETSUGU, SIMON WEBB, SOOHAENG YOO, FEDERICO ZAHARIEV

  ADDITIONAL CODE HAS BEEN PROVIDED BY COLLABORATORS IN OTHER GROUPS:
     IOWA STATE UNIVERSITY:
          JOE IVANIC, LAIMUTIS BYTAUTAS, KLAUS RUEDENBERG
     UNIVERSITY OF TOKYO: KIMIHIKO HIRAO, TAKAHITO NAKAJIMA,
          TAKAO TSUNEDA, MUNEAKI KAMIYA, SUSUMU YANAGISAWA,
          KIYOSHI YAGI, MAHITO CHIBA, SEIKEN TOKURA, NAOAKI KAWAKAMI
     UNIVERSITY OF AARHUS: FRANK JENSEN
     UNIVERSITY OF IOWA: VISVALDAS KAIRYS, HUI LI
     NATIONAL INST. OF STANDARDS AND TECHNOLOGY: WALT STEVENS, DAVID GARMER
     UNIVERSITY OF PISA: BENEDETTA MENNUCCI, JACOPO TOMASI
     UNIVERSITY OF MEMPHIS: HENRY KURTZ, PRAKASHAN KORAMBATH
     UNIVERSITY OF ALBERTA: TOBY ZENG, MARIUSZ KLOBUKOWSKI
     UNIVERSITY OF NEW ENGLAND: MARK SPACKMAN
     MIE UNIVERSITY: HIROAKI UMEDA
     MICHIGAN STATE UNIVERSITY:
          KAROL KOWALSKI, MARTA WLOCH, JEFFREY GOUR, JESSE LUTZ, PIOTR PIECUCH
     UNIVERSITY OF SILESIA: MONIKA MUSIAL, STANISLAW KUCHARSKI
     FACULTES UNIVERSITAIRES NOTRE-DAME DE LA PAIX:
          OLIVIER QUINET, BENOIT CHAMPAGNE
     UNIVERSITY OF CALIFORNIA - SANTA BARBARA: BERNARD KIRTMAN
     INSTITUTE FOR MOLECULAR SCIENCE:
          KAZUYA ISHIMURA, MICHIO KATOUDA, AND SHIGERU NAGASE
     UNIVERSITY OF NOTRE DAME: DAN CHIPMAN
     KYUSHU UNIVERSITY:
          HARUYUKI NAKANO,
          FENG LONG GU, JACEK KORCHOWIEC, MARCIN MAKOWSKI, AND YURIKO AOKI,
          HIROTOSHI MORI AND EISAKU MIYOSHI
     PENNSYLVANIA STATE UNIVERSITY:
          TZVETELIN IORDANOV, CHET SWALINA, JONATHAN SKONE,
          SHARON HAMMES-SCHIFFER
     WASEDA UNIVERSITY:
          MASATO KOBAYASHI, TOMOKO AKAMA, TSUGUKI TOUMA,
          TAKESHI YOSHIKAWA, YASUHIRO IKABATA, HIROMI NAKAI
     UNIVERSITY OF NEBRASKA:
          PEIFENG SU, DEJUN SI, NANDUN THELLAMUREGE, YALI WANG, HUI LI
     UNIVERSITY OF ZURICH:
          ROBERTO PEVERATI, KIM BALDRIDGE
     N. COPERNICUS UNIVERSITY AND JACKSON STATE UNIVERSITY:
          MARIA BARYSZ

 EXECUTION OF GAMESS BEGUN Thu Feb 26 00:12:48 2015

            ECHO OF THE FIRST FEW INPUT CARDS -
 INPUT CARD> $BASIS GBASIS=PC1 $END                                                         
 INPUT CARD> $CONTRL COORD=ZMT ISPHER=1 RUNTYP=ENERGY DFTTYP=PBE $END                       
 INPUT CARD>                                                                                
 INPUT CARD> $DATA                                                                          
 INPUT CARD>Title                                                                           
 INPUT CARD>Cnv 2                                                                           
 INPUT CARD>                                                                                
 INPUT CARD>S                                                                               
 INPUT CARD>O 1 1.20                                                                        
 INPUT CARD>O 1 1.20 2 110.0                                                                
 INPUT CARD> $END                                                                           
    1000000 WORDS OF MEMORY AVAILABLE

     BASIS OPTIONS
     -------------
     GBASIS=PC1          IGAUSS=       0      POLAR=NONE    
     NDFUNC=       0     NFFUNC=       0     DIFFSP=       F
     NPFUNC=       0      DIFFS=       F     BASNAM=        


     RUN TITLE
     ---------
 Title                                                                           

 THE POINT GROUP OF THE MOLECULE IS CNV     
 THE ORDER OF THE PRINCIPAL AXIS IS     2

 YOUR FULLY SUBSTITUTED Z-MATRIX IS
 S   
 O      1   1.2000000
 O      1   1.2000000  2  110.0000

 THE MOMENTS OF INERTIA ARE (AMU-ANGSTROM**2)
 IXX=     7.575   IYY=    30.910   IZZ=    38.486

 ATOM      ATOMIC                      COORDINATES (BOHR)
           CHARGE         X                   Y                   Z
 S          16.0     0.0000000000        0.0000000000       -0.6505218542
 O           8.0    -1.8575674872        0.0000000000        0.6501609030
 O           8.0     1.8575674872        0.0000000000        0.6501609030

          INTERNUCLEAR DISTANCES (ANGS.)
          ------------------------------

                1 S          2 O          3 O     

   1 S       0.0000000    1.2000000 *  1.2000000 *
   2 O       1.2000000 *  0.0000000    1.9659649 *
   3 O       1.2000000 *  1.9659649 *  0.0000000  

  * ... LESS THAN  3.000


     ATOMIC BASIS SET
     ----------------
 THE CONTRACTED PRIMITIVE FUNCTIONS HAVE BEEN UNNORMALIZED
 THE CONTRACTED BASIS FUNCTIONS ARE NOW NORMALIZED TO UNITY

  SHELL TYPE  PRIMITIVE        EXPONENT          CONTRACTION COEFFICIENT(S)

 S         

      1   S       1         55510.0000000    0.000587229760
      1   S       2          8326.7000000    0.004532413947
      1   S       3          1895.6000000    0.023265261648
      1   S       4           536.7700000    0.089696133027
      1   S       5           174.6700000    0.254098332277
      1   S       6            62.5780000    0.438665087637
      1   S       7            23.5730000    0.314547135094
      1   S       8             5.8908000    0.032727897102

      2   S       9          8326.7000000   -0.000019755715
      2   S      10          1895.6000000   -0.000043822381
      2   S      11           536.7700000   -0.001730264906
      2   S      12           174.6700000   -0.009381263460
      2   S      13            62.5780000   -0.064050766303
      2   S      14            23.5730000   -0.082478179196
      2   S      15             5.8908000    0.478342956889
      2   S      16             2.1852000    0.626896670208

      3   S      17          1895.6000000    0.000016227260
      3   S      18           536.7700000    0.000191135619
      3   S      19           174.6700000    0.001952069674
      3   S      20            62.5780000    0.010578701087
      3   S      21            23.5730000    0.022164934551
      3   S      22             5.8908000   -0.184968323118
      3   S      23             2.1852000   -0.480920750976
      3   S      24             0.4528200    1.243822243872

      4   S      25             0.1620200    1.000000000000

      5   P      26           395.4500000    0.004642761329
      5   P      27            92.8340000    0.036023396489
      5   P      28            29.2660000    0.149058869978
      5   P      29            10.5950000    0.360033266263
      5   P      30             4.0272000    0.455756476221
      5   P      31             1.5484000    0.206167664178

      6   P      32            92.8340000    0.000169901442
      6   P      33            29.2660000   -0.002541839934
      6   P      34            10.5950000   -0.007867614595
      6   P      35             4.0272000   -0.037231009184
      6   P      36             1.5484000    0.161417246830
      6   P      37             0.4613400    0.902230419976

      7   P      38             0.1313100    1.000000000000

      8   D      39             0.5500000    1.000000000000

 O         

     15   S      40          2306.7000000    0.005424388755
     15   S      41           347.1500000    0.040474749465
     15   S      42            78.8900000    0.180219634554
     15   S      43            21.8760000    0.462370311787
     15   S      44             6.6646000    0.454888396263

     16   S      45           347.1500000   -0.000655003786
     16   S      46            78.8900000   -0.005362052952
     16   S      47            21.8760000   -0.074902158894
     16   S      48             6.6646000   -0.181442579655
     16   S      49             1.0669000    1.102006874042

     17   S      50             0.3070000    1.000000000000

     18   P      51            17.0220000    0.068979967443
     18   P      52             3.6838000    0.351985516325
     18   P      53             0.9923400    0.724036547822

     19   P      54             0.2448700    1.000000000000

     20   D      55             1.0000000    1.000000000000

 TOTAL NUMBER OF BASIS SET SHELLS             =   20
 NUMBER OF CARTESIAN GAUSSIAN BASIS FUNCTIONS =   49
 NOTE: THIS RUN WILL RESTRICT THE MO VARIATION SPACE TO SPHERICAL HARMONICS.
 THE NUMBER OF ORBITALS KEPT IN THE VARIATIONAL SPACE WILL BE PRINTED LATER.
 NUMBER OF ELECTRONS                          =   32
 CHARGE OF MOLECULE                           =    0
 SPIN MULTIPLICITY                            =    1
 NUMBER OF OCCUPIED ORBITALS (ALPHA)          =   16
 NUMBER OF OCCUPIED ORBITALS (BETA )          =   16
 TOTAL NUMBER OF ATOMS                        =    3
 THE NUCLEAR REPULSION ENERGY IS      130.1179768731

     LEBEDEV GRID-BASED DFT OPTIONS
     ------------------------------
     DFTTYP=PBE     
     NRAD  =      96     NLEB  =     302
     NRAD0 =      24     NLEB0 =     110
     SWOFF =    5.00E-03 (PURE SCF -> DFT)
     SWITCH=    3.00E-04 (COARSE -> TIGHT GRID)
     THRESH=    0.00E+00 GTHRE=    1.00E+00

 GRIMME'S EMPIRICAL DISPERSION CORRECTION= F

     $CONTRL OPTIONS
     ---------------
 SCFTYP=RHF          RUNTYP=ENERGY       EXETYP=RUN     
 MPLEVL=       0     CITYP =NONE         CCTYP =NONE         VBTYP =NONE    
 DFTTYP=PBE          TDDFT =NONE    
 MULT  =       1     ICHARG=       0     NZVAR =       0     COORD =ZMT     
 PP    =NONE         RELWFN=NONE         LOCAL =NONE         NUMGRD=       F
 ISPHER=       1     NOSYM =       0     MAXIT =      30     UNITS =ANGS    
 PLTORB=       F     MOLPLT=       F     AIMPAC=       F     FRIEND=        
 NPRINT=       7     IREST =       0     GEOM  =INPUT   
 NORMF =       0     NORMP =       0     ITOL  =      20     ICUT  =       9
 INTTYP=BEST         GRDTYP=BEST         QMTTOL= 1.0E-06

     $SYSTEM OPTIONS
     ---------------
  REPLICATED MEMORY=     1000000 WORDS (ON EVERY NODE).
 DISTRIBUTED MEMDDI=           0 MILLION WORDS IN AGGREGATE,
 MEMDDI DISTRIBUTED OVER   1 PROCESSORS IS           0 WORDS/PROCESSOR.
 TOTAL MEMORY REQUESTED ON EACH PROCESSOR=     1000000 WORDS.
 TIMLIM=      525600.00 MINUTES, OR     365.0 DAYS.
 PARALL= F  BALTYP=  DLB     KDIAG=    0  COREFL= F
 MXSEQ2=     300 MXSEQ3=     150

          ----------------
          PROPERTIES INPUT
          ----------------

     MOMENTS            FIELD           POTENTIAL          DENSITY
 IEMOM =       1   IEFLD =       0   IEPOT =       0   IEDEN =       0
 WHERE =COMASS     WHERE =NUCLEI     WHERE =NUCLEI     WHERE =NUCLEI  
 OUTPUT=BOTH       OUTPUT=BOTH       OUTPUT=BOTH       OUTPUT=BOTH    
 IEMINT=       0   IEFINT=       0                     IEDINT=       0
                                                       MORB  =       0
          EXTRAPOLATION IN EFFECT
          DIIS IN EFFECT
 ORBITAL PRINTING OPTION: NPREO=     1    49     2     1

     -------------------------------
     INTEGRAL TRANSFORMATION OPTIONS
     -------------------------------
     NWORD  =            0
     CUTOFF = 1.0E-09     MPTRAN =       0
     DIRTRF =       F     AOINTS =DUP     

          ----------------------
          INTEGRAL INPUT OPTIONS
          ----------------------
 NOPK  =       1 NORDER=       0 SCHWRZ=       F

   --- ENCODED Z MATRIX ---
 COORD  TYPE   I   J   K   L   M   N
    1      1    3   1
    2      1    2   1
    3      2    2   1   3

 THE DETERMINANT OF THE G MATRIX IS 10**(    -4)

 THE DETERMINANT OF THE G MATRIX IS 10**(    -4)
 * * * WARNING * * *
 YOUR B MATRIX HAS A SMALL DETERMINANT.
 THIS SUGGESTS YOU MAY HAVE BADLY CHOSEN COORDINATES.

     ------------------------------------------
     THE POINT GROUP IS CNV, NAXIS= 2, ORDER= 4
     ------------------------------------------

 -- VARIATIONAL SPACE WILL BE RESTRICTED TO PURE SPHERICAL HARMONICS ONLY --
 AFTER EXCLUDING CONTAMINANT COMBINATIONS FROM THE CARTESIAN GAUSSIAN BASIS
 SET, THE NUMBER OF SPHERICAL HARMONICS KEPT IN THE VARIATION SPACE IS   46

     DIMENSIONS OF THE SYMMETRY SUBSPACES ARE
 A1  =   19     A2  =    5     B1  =   14     B2  =    8

 ..... DONE SETTING UP THE RUN .....
 STEP CPU TIME =     0.11 TOTAL CPU TIME =        0.1 (    0.0 MIN)
 TOTAL WALL CLOCK TIME=        0.1 SECONDS, CPU UTILIZATION IS  84.62%

          ********************
          1 ELECTRON INTEGRALS
          ********************
 ...... END OF ONE-ELECTRON INTEGRALS ......
 STEP CPU TIME =     0.01 TOTAL CPU TIME =        0.1 (    0.0 MIN)
 TOTAL WALL CLOCK TIME=        0.1 SECONDS, CPU UTILIZATION IS  92.31%

          -------------
          GUESS OPTIONS
          -------------
          GUESS =HUCKEL            NORB  =       0          NORDER=       0
          MIX   =       F          PRTMO =       F          PUNMO =       F
          TOLZ  = 1.0E-08          TOLE  = 1.0E-05
          SYMDEN=       F          PURIFY=       F

 INITIAL GUESS ORBITALS GENERATED BY HUCKEL   ROUTINE.
 HUCKEL GUESS REQUIRES     21583 WORDS.

 STATISTICS FOR GENERATION OF SYMMETRY ORBITAL -Q- MATRIX
 NUMBER OF CARTESIAN ATOMIC ORBITALS=         49
 NUMBER OF SPHERICAL CONTAMINANTS DROPPED=     3
 NUMBER OF LINEARLY DEPENDENT MOS DROPPED=     0
 TOTAL NUMBER OF MOS IN VARIATION SPACE=      46

 SYMMETRIES FOR INITIAL GUESS ORBITALS FOLLOW.   BOTH SET(S).
    16 ORBITALS ARE OCCUPIED (    7 CORE ORBITALS).
     8=?A1      9=?B1     10=?A1     11=B2      12=A1      13=B1      14=A2  
    15=B1      16=A1      17=B2      18=B1      19=A1      20=A1      21=A1  
    22=A1      23=A1      24=A1      25=A1      26=A1  
 ...... END OF INITIAL ORBITAL SELECTION ......
 STEP CPU TIME =     0.01 TOTAL CPU TIME =        0.1 (    0.0 MIN)
 TOTAL WALL CLOCK TIME=        0.1 SECONDS, CPU UTILIZATION IS  92.86%

                    ----------------------
                    AO INTEGRAL TECHNOLOGY
                    ----------------------
     S,P,L SHELL ROTATED AXIS INTEGRALS, REPROGRAMMED BY
        KAZUYA ISHIMURA (IMS) AND JOSE SIERRA (SYNSTAR).
     S,P,D,L SHELL ROTATED AXIS INTEGRALS PROGRAMMED BY
        KAZUYA ISHIMURA (INSTITUTE FOR MOLECULAR SCIENCE).
     S,P,D,F,G SHELL TO TOTAL QUARTET ANGULAR MOMENTUM SUM 5,
        ERIC PROGRAM BY GRAHAM FLETCHER (ELORET AND NASA ADVANCED
        SUPERCOMPUTING DIVISION, AMES RESEARCH CENTER).
     S,P,D,F,G,L SHELL GENERAL RYS QUADRATURE PROGRAMMED BY
        MICHEL DUPUIS (PACIFIC NORTHWEST NATIONAL LABORATORY).

          --------------------
          2 ELECTRON INTEGRALS
          --------------------

 THE -PK- OPTION IS OFF, THE INTEGRALS ARE NOT IN SUPERMATRIX FORM.
 STORING   15000 INTEGRALS/RECORD ON DISK, USING 12 BYTES/INTEGRAL.
 TWO ELECTRON INTEGRAL EVALUATION REQUIRES   90606 WORDS OF MEMORY.
 II,JST,KST,LST =  1  1  1  1 NREC =         1 INTLOC =    1
 II,JST,KST,LST =  2  1  1  1 NREC =         1 INTLOC =    2
 II,JST,KST,LST =  3  1  1  1 NREC =         1 INTLOC =    7
 II,JST,KST,LST =  4  1  1  1 NREC =         1 INTLOC =   22
 II,JST,KST,LST =  5  1  1  1 NREC =         1 INTLOC =   56
 II,JST,KST,LST =  6  1  1  1 NREC =         1 INTLOC =  125
 II,JST,KST,LST =  7  1  1  1 NREC =         1 INTLOC =  329
 II,JST,KST,LST =  8  1  1  1 NREC =         1 INTLOC =  776
 II,JST,KST,LST =  9  1  1  1 NREC =         1 INTLOC = 2864
 II,JST,KST,LST = 10  1  1  1 NREC =         1 INTLOC = 2864
 II,JST,KST,LST = 11  1  1  1 NREC =         1 INTLOC = 2864
 II,JST,KST,LST = 12  1  1  1 NREC =         1 INTLOC = 2864
 II,JST,KST,LST = 13  1  1  1 NREC =         1 INTLOC = 2864
 II,JST,KST,LST = 14  1  1  1 NREC =         1 INTLOC = 2864
 II,JST,KST,LST = 15  1  1  1 NREC =         1 INTLOC = 2864
 II,JST,KST,LST = 16  1  1  1 NREC =         1 INTLOC = 5172
 II,JST,KST,LST = 17  1  1  1 NREC =         1 INTLOC = 8537
 II,JST,KST,LST = 18  1  1  1 NREC =         1 INTLOC =13020
 II,JST,KST,LST = 19  1  1  1 NREC =         3 INTLOC = 1629
 II,JST,KST,LST = 20  1  1  1 NREC =         5 INTLOC = 3172
 TOTAL NUMBER OF NONZERO TWO-ELECTRON INTEGRALS =              183518
         13 INTEGRAL RECORDS WERE STORED ON DISK FILE  8.
  ...... END OF TWO-ELECTRON INTEGRALS .....
 STEP CPU TIME =     0.16 TOTAL CPU TIME =        0.3 (    0.0 MIN)
 TOTAL WALL CLOCK TIME=        0.3 SECONDS, CPU UTILIZATION IS  96.67%

          --------------------------
               R-PBE SCF CALCULATION
          --------------------------

     NUCLEAR ENERGY =       130.1179768731
     MAXIT =   30     NPUNCH=    2
     EXTRAP=T  DAMP=F  SHIFT=F  RSTRCT=F  DIIS=T  DEM=F  SOSCF=F
         DENSITY MATRIX CONVERGENCE THRESHOLD=  1.00E-05
     COARSE -> FINE DFT GRID SWITCH THRESHOLD=  3.00E-04 (SWITCH IN $DFT)
                   HF -> DFT SWITCH THRESHOLD=  5.00E-03 (SWOFF IN $DFT)
     MEMORY REQUIRED FOR RHF ITERS=    183108 WORDS.

 DFT CODE IS SWITCHING FROM THE FINE GRID NRAD= 96,  NLEB=  302
                      TO THE COARSE GRID NRAD0= 24, NLEB0=  110

     EXCHANGE FUNCTIONAL   =PBE       
     CORRELATION FUNCTIONAL=PBE       
     DFT THRESHOLD         =.460E-07
     GRID CHANGE THRESHOLD =.300E-03
 FOR AN EULER-MACLAURIN QUADRATURE USING  96 RADIAL POINTS:
 SMALLEST GAUSSIAN PRIMITIVE EXPONENT=        0.1313100000 OF TYPE -P-
 ON ATOM NUMBER   1 HAS RADIAL NORMALIZATION=  1.000000
  LARGEST GAUSSIAN PRIMITIVE EXPONENT=    55510.0000000000 OF TYPE -S-
 ON ATOM NUMBER   1 HAS RADIAL NORMALIZATION=  0.999999
 DFT IS SWITCHED OFF, PERFORMING PURE SCF UNTIL SWOFF THRESHOLD IS REACHED.

 ITER EX DEM     TOTAL ENERGY        E CHANGE  DENSITY CHANGE    DIIS ERROR
   1  0  0     -545.6392260861  -545.6392260861   0.341165033   1.163121516
          * * *   INITIATING DIIS PROCEDURE   * * *
   2  1  0     -546.7737483222    -1.1345222361   0.484190200   0.170678181
   3  2  0     -546.8469821759    -0.0732338537   0.053203461   0.081269829
   4  3  0     -546.8632249341    -0.0162427581   0.042445073   0.014869396
   5  4  0     -546.8641250144    -0.0009000803   0.021735609   0.005910581
   6  5  0     -546.8642317792    -0.0001067648   0.004335963   0.001234034
 CONVERGED TO SWOFF, SO DFT CALCULATION IS NOW SWITCHED ON.
          * * *   INITIATING DIIS PROCEDURE   * * *
   7  6  0     -547.9004473003    -1.0362155211   0.136733888   0.090451096
   8  7  0     -547.9159236087    -0.0154763085   0.103704755   0.041503592
   9  8  0     -547.9152036236     0.0007199851   0.034696536   0.050922510
  10  9  0     -547.9215240316    -0.0063204079   0.011918713   0.006475390
  11 10  0     -547.9216154731    -0.0000914415   0.000338584   0.000513518
  12 11  0     -547.9216158938    -0.0000004208   0.000136947   0.000028980
 DFT CODE IS SWITCHING BACK TO THE FINE GRID
          * * *   INITIATING DIIS PROCEDURE   * * *
  13 12  0     -547.9255000899    -0.0038841961   0.009992542   0.011279076
  14 13  0     -547.9255907101    -0.0000906202   0.004685239   0.004752264
  15 14  0     -547.9256051060    -0.0000143959   0.001969368   0.003706799
  16 15  0     -547.9256305891    -0.0000254831   0.000079966   0.000176074
  17 16  0     -547.9256306481    -0.0000000590   0.000051886   0.000022747
  18 17  0     -547.9256306492    -0.0000000011   0.000011874   0.000002195
  19 18  0     -547.9256306493     0.0000000000   0.000001874   0.000000618
  20 19  0     -547.9256306493     0.0000000000   0.000000173   0.000000095

          -----------------
          DENSITY CONVERGED
          -----------------
     TIME TO FORM FOCK OPERATORS=       4.5 SECONDS (       0.2 SEC/ITER)
     TIME TO SOLVE SCF EQUATIONS=       0.0 SECONDS (       0.0 SEC/ITER)

 FINAL R-PBE ENERGY IS     -547.9256306493 AFTER  20 ITERATIONS
 DFT EXCHANGE + CORRELATION ENERGY =       -43.0885102475
 TOTAL ELECTRON NUMBER             =        32.0000635368

          ------------
          EIGENVECTORS
          ------------

                      1          2          3          4          5
                  -88.1482   -18.7438   -18.7437    -7.8085    -5.8289
                     A1         B1         A1         A1         B1  
    1  S  1  S    1.002981   0.000000  -0.000094  -0.273767   0.000000
    2  S  1  S   -0.010146   0.000000   0.000228   1.039263   0.000000
    3  S  1  S    0.002078   0.000000  -0.001223   0.043793   0.000000
    4  S  1  S   -0.000440   0.000000   0.012066  -0.008832   0.000000
    5  S  1  X    0.000000  -0.000402   0.000000   0.000000   0.994582
    6  S  1  Y    0.000000   0.000000   0.000000   0.000000   0.000000
    7  S  1  Z    0.000036   0.000000   0.000075   0.013977   0.000000
    8  S  1  X    0.000000   0.001473   0.000000   0.000000   0.013445
    9  S  1  Y    0.000000   0.000000   0.000000   0.000000   0.000000
   10  S  1  Z    0.000299   0.000000   0.000146   0.003361   0.000000
   11  S  1  X    0.000000  -0.004279   0.000000   0.000000  -0.000084
   12  S  1  Y    0.000000   0.000000   0.000000   0.000000   0.000000
   13  S  1  Z    0.000027   0.000000   0.004925  -0.000111   0.000000
   14  S  1 XX    0.000177   0.000000  -0.000736   0.001678   0.000000
   15  S  1 YY   -0.000146   0.000000   0.000472  -0.001255   0.000000
   16  S  1 ZZ   -0.000031   0.000000   0.000264  -0.000423   0.000000
   17  S  1 XY    0.000000   0.000000   0.000000   0.000000   0.000000
   18  S  1 XZ    0.000000   0.002625   0.000000   0.000000   0.003068
   19  S  1 YZ    0.000000   0.000000   0.000000   0.000000   0.000000
   20  O  2  S    0.000008   0.703187   0.703170  -0.001140   0.002092
   21  O  2  S   -0.000035   0.027219   0.026777   0.000372  -0.002086
   22  O  2  S   -0.000346  -0.011910  -0.014690  -0.002078   0.001318
   23  O  2  X   -0.000122   0.001939   0.001392   0.000759  -0.002532
   24  O  2  Y    0.000000   0.000000   0.000000   0.000000   0.000000
   25  O  2  Z    0.000088  -0.001386  -0.000927  -0.000518   0.002284
   26  O  2  X   -0.000234  -0.001836  -0.002835  -0.002033   0.000738
   27  O  2  Y    0.000000   0.000000   0.000000   0.000000   0.000000
   28  O  2  Z    0.000204   0.001728   0.001210   0.001782  -0.000460
   29  O  2 XX   -0.000035  -0.000002   0.000234   0.000723  -0.000608
   30  O  2 YY    0.000051   0.000104  -0.000303  -0.000612   0.001025
   31  O  2 ZZ   -0.000017  -0.000102   0.000069  -0.000111  -0.000417
   32  O  2 XY    0.000000   0.000000   0.000000   0.000000   0.000000
   33  O  2 XZ    0.000077  -0.000417  -0.000040  -0.001090   0.001635
   34  O  2 YZ    0.000000   0.000000   0.000000   0.000000   0.000000
   35  O  3  S    0.000008  -0.703187   0.703170  -0.001140  -0.002092
   36  O  3  S   -0.000035  -0.027219   0.026777   0.000372   0.002086
   37  O  3  S   -0.000346   0.011910  -0.014690  -0.002078  -0.001318
   38  O  3  X    0.000122   0.001939  -0.001392  -0.000759  -0.002532
   39  O  3  Y    0.000000   0.000000   0.000000   0.000000   0.000000
   40  O  3  Z    0.000088   0.001386  -0.000927  -0.000518  -0.002284
   41  O  3  X    0.000234  -0.001836   0.002835   0.002033   0.000738
   42  O  3  Y    0.000000   0.000000   0.000000   0.000000   0.000000
   43  O  3  Z    0.000204  -0.001728   0.001210   0.001782   0.000460
   44  O  3 XX   -0.000035   0.000002   0.000234   0.000723   0.000608
   45  O  3 YY    0.000051  -0.000104  -0.000303  -0.000612  -0.001025
   46  O  3 ZZ   -0.000017   0.000102   0.000069  -0.000111   0.000417
   47  O  3 XY    0.000000   0.000000   0.000000   0.000000   0.000000
   48  O  3 XZ   -0.000077  -0.000417   0.000040   0.001090   0.001635
   49  O  3 YZ    0.000000   0.000000   0.000000   0.000000   0.000000

                      6          7          8          9         10
                   -5.8234    -5.8182    -1.2005    -1.0420    -0.5427
                     B2         A1         A1         B1         A1  
    1  S  1  S    0.000000   0.004384   0.059890   0.000000  -0.049589
    2  S  1  S    0.000000  -0.016457  -0.184074   0.000000   0.141103
    3  S  1  S    0.000000   0.001128   0.316925   0.000000  -0.310325
    4  S  1  S    0.000000   0.000700   0.080871   0.000000  -0.315599
    5  S  1  X    0.000000   0.000000   0.000000  -0.195599   0.000000
    6  S  1  Y    0.996188   0.000000   0.000000   0.000000   0.000000
    7  S  1  Z    0.000000   0.995487  -0.106860   0.000000  -0.147521
    8  S  1  X    0.000000   0.000000   0.000000   0.332991   0.000000
    9  S  1  Y    0.010951   0.000000   0.000000   0.000000   0.000000
   10  S  1  Z    0.000000   0.011501   0.165197   0.000000   0.320903
   11  S  1  X    0.000000   0.000000   0.000000   0.018664   0.000000
   12  S  1  Y   -0.000647   0.000000   0.000000   0.000000   0.000000
   13  S  1  Z    0.000000  -0.000185  -0.009748   0.000000   0.133439
   14  S  1 XX    0.000000  -0.000568   0.038791   0.000000  -0.063809
   15  S  1 YY    0.000000  -0.001116  -0.042488   0.000000  -0.023120
   16  S  1 ZZ    0.000000   0.001684   0.003697   0.000000   0.086929
   17  S  1 XY    0.000000   0.000000   0.000000   0.000000   0.000000
   18  S  1 XZ    0.000000   0.000000   0.000000   0.112509   0.000000
   19  S  1 YZ    0.001203   0.000000   0.000000   0.000000   0.000000
   20  O  2  S    0.000000  -0.001398  -0.124521   0.148804  -0.057021
   21  O  2  S    0.000000   0.001869   0.234883  -0.276121   0.113624
   22  O  2  S    0.000000  -0.000603   0.212899  -0.266868   0.199566
   23  O  2  X    0.000000   0.002409   0.136931  -0.108289   0.035553
   24  O  2  Y    0.000578   0.000000   0.000000   0.000000   0.000000
   25  O  2  Z    0.000000  -0.001211  -0.079365   0.102419   0.251769
   26  O  2  X    0.000000  -0.000635   0.028804  -0.015466   0.019692
   27  O  2  Y   -0.000269   0.000000   0.000000   0.000000   0.000000
   28  O  2  Z    0.000000  -0.000097  -0.015239   0.018398   0.118053
   29  O  2 XX    0.000000   0.000796   0.011404  -0.007057   0.009599
   30  O  2 YY    0.000000  -0.000560  -0.008899   0.009830   0.003114
   31  O  2 ZZ    0.000000  -0.000236  -0.002504  -0.002774  -0.012713
   32  O  2 XY    0.000364   0.000000   0.000000   0.000000   0.000000
   33  O  2 XZ    0.000000  -0.001007  -0.017834   0.018139   0.011995
   34  O  2 YZ   -0.000351   0.000000   0.000000   0.000000   0.000000
   35  O  3  S    0.000000  -0.001398  -0.124521  -0.148804  -0.057021
   36  O  3  S    0.000000   0.001869   0.234883   0.276121   0.113624
   37  O  3  S    0.000000  -0.000603   0.212899   0.266868   0.199566
   38  O  3  X    0.000000  -0.002409  -0.136931  -0.108289  -0.035553
   39  O  3  Y    0.000578   0.000000   0.000000   0.000000   0.000000
   40  O  3  Z    0.000000  -0.001211  -0.079365  -0.102419   0.251769
   41  O  3  X    0.000000   0.000635  -0.028804  -0.015466  -0.019692
   42  O  3  Y   -0.000269   0.000000   0.000000   0.000000   0.000000
   43  O  3  Z    0.000000  -0.000097  -0.015239  -0.018398   0.118053
   44  O  3 XX    0.000000   0.000796   0.011404   0.007057   0.009599
   45  O  3 YY    0.000000  -0.000560  -0.008899  -0.009830   0.003114
   46  O  3 ZZ    0.000000  -0.000236  -0.002504   0.002774  -0.012713
   47  O  3 XY   -0.000364   0.000000   0.000000   0.000000   0.000000
   48  O  3 XZ    0.000000   0.001007   0.017834   0.018139  -0.011995
   49  O  3 YZ   -0.000351   0.000000   0.000000   0.000000   0.000000

                     11         12         13         14         15
                   -0.5300    -0.4781    -0.4288    -0.3628    -0.3059
                     B2         A1         B1         A2         B1  
    1  S  1  S    0.000000   0.026941   0.000000   0.000000   0.000000
    2  S  1  S    0.000000  -0.055375   0.000000   0.000000   0.000000
    3  S  1  S    0.000000   0.194088   0.000000   0.000000   0.000000
    4  S  1  S    0.000000  -0.046699   0.000000   0.000000   0.000000
    5  S  1  X    0.000000   0.000000  -0.160004   0.000000   0.000877
    6  S  1  Y   -0.207760   0.000000   0.000000   0.000000   0.000000
    7  S  1  Z    0.000000  -0.110420   0.000000   0.000000   0.000000
    8  S  1  X    0.000000   0.000000   0.342819   0.000000   0.007812
    9  S  1  Y    0.461522   0.000000   0.000000   0.000000   0.000000
   10  S  1  Z    0.000000   0.238132   0.000000   0.000000   0.000000
   11  S  1  X    0.000000   0.000000   0.005055   0.000000   0.133554
   12  S  1  Y    0.154184   0.000000   0.000000   0.000000   0.000000
   13  S  1  Z    0.000000   0.001365   0.000000   0.000000   0.000000
   14  S  1 XX    0.000000  -0.087663   0.000000   0.000000   0.000000
   15  S  1 YY    0.000000   0.006029   0.000000   0.000000   0.000000
   16  S  1 ZZ    0.000000   0.081635   0.000000   0.000000   0.000000
   17  S  1 XY    0.000000   0.000000   0.000000  -0.175627   0.000000
   18  S  1 XZ    0.000000   0.000000   0.024075   0.000000  -0.155528
   19  S  1 YZ    0.082006   0.000000   0.000000   0.000000   0.000000
   20  O  2  S    0.000000   0.081681  -0.069420   0.000000  -0.008792
   21  O  2  S    0.000000  -0.166768   0.143787   0.000000   0.011318
   22  O  2  S    0.000000  -0.289140   0.293464   0.000000   0.036567
   23  O  2  X    0.000000   0.358690  -0.227275   0.000000   0.414353
   24  O  2  Y    0.327438   0.000000   0.000000   0.462933   0.000000
   25  O  2  Z    0.000000   0.025421   0.325078   0.000000   0.254049
   26  O  2  X    0.000000   0.195873  -0.111825   0.000000   0.255321
   27  O  2  Y    0.165676   0.000000   0.000000   0.306251   0.000000
   28  O  2  Z    0.000000   0.014824   0.177356   0.000000   0.187337
   29  O  2 XX    0.000000   0.020788  -0.002012   0.000000   0.032262
   30  O  2 YY    0.000000  -0.009818   0.013604   0.000000  -0.004984
   31  O  2 ZZ    0.000000  -0.010970  -0.011592   0.000000  -0.027279
   32  O  2 XY    0.024434   0.000000   0.000000   0.022864   0.000000
   33  O  2 XZ    0.000000  -0.008332   0.022154   0.000000  -0.003389
   34  O  2 YZ   -0.016553   0.000000   0.000000  -0.017413   0.000000
   35  O  3  S    0.000000   0.081681   0.069420   0.000000   0.008792
   36  O  3  S    0.000000  -0.166768  -0.143787   0.000000  -0.011318
   37  O  3  S    0.000000  -0.289140  -0.293464   0.000000  -0.036567
   38  O  3  X    0.000000  -0.358690  -0.227275   0.000000   0.414353
   39  O  3  Y    0.327438   0.000000   0.000000  -0.462933   0.000000
   40  O  3  Z    0.000000   0.025421  -0.325078   0.000000  -0.254049
   41  O  3  X    0.000000  -0.195873  -0.111825   0.000000   0.255321
   42  O  3  Y    0.165676   0.000000   0.000000  -0.306251   0.000000
   43  O  3  Z    0.000000   0.014824  -0.177356   0.000000  -0.187337
   44  O  3 XX    0.000000   0.020788   0.002012   0.000000  -0.032262
   45  O  3 YY    0.000000  -0.009818  -0.013604   0.000000   0.004984
   46  O  3 ZZ    0.000000  -0.010970   0.011592   0.000000   0.027279
   47  O  3 XY   -0.024434   0.000000   0.000000   0.022864   0.000000
   48  O  3 XZ    0.000000   0.008332   0.022154   0.000000  -0.003389
   49  O  3 YZ   -0.016553   0.000000   0.000000   0.017413   0.000000

                     16         17         18         19         20
                   -0.2794    -0.0779     0.1119     0.1245     0.3343
                     A1         B2         B1         A1         B2  
    1  S  1  S    0.020850   0.000000   0.000000   0.005828   0.000000
    2  S  1  S   -0.105574   0.000000   0.000000  -0.138098   0.000000
    3  S  1  S    0.084605   0.000000   0.000000  -0.102676   0.000000
    4  S  1  S    0.759426   0.000000   0.000000   1.723278   0.000000
    5  S  1  X    0.000000   0.000000  -0.088518   0.000000   0.000000
    6  S  1  Y    0.000000  -0.196530   0.000000   0.000000   0.296982
    7  S  1  Z    0.154439   0.000000   0.000000  -0.049380   0.000000
    8  S  1  X    0.000000   0.000000   0.244691   0.000000   0.000000
    9  S  1  Y    0.000000   0.516470   0.000000   0.000000  -1.121512
   10  S  1  Z   -0.335620   0.000000   0.000000   0.178450   0.000000
   11  S  1  X    0.000000   0.000000   1.463990   0.000000   0.000000
   12  S  1  Y    0.000000   0.737173   0.000000   0.000000   1.172131
   13  S  1  Z   -0.154757   0.000000   0.000000   1.421736   0.000000
   14  S  1 XX   -0.174878   0.000000   0.000000  -0.103769   0.000000
   15  S  1 YY    0.072423   0.000000   0.000000   0.282599   0.000000
   16  S  1 ZZ    0.102455   0.000000   0.000000  -0.178830   0.000000
   17  S  1 XY    0.000000   0.000000   0.000000   0.000000   0.000000
   18  S  1 XZ    0.000000   0.000000  -0.216450   0.000000   0.000000
   19  S  1 YZ    0.000000  -0.149747   0.000000   0.000000  -0.106508
   20  O  2  S    0.016450   0.000000  -0.055452   0.068682   0.000000
   21  O  2  S   -0.029247   0.000000   0.064083  -0.071711   0.000000
   22  O  2  S   -0.110302   0.000000   0.720570  -1.003771   0.000000
   23  O  2  X   -0.041691   0.000000  -0.082665  -0.136063   0.000000
   24  O  2  Y    0.000000  -0.343228   0.000000   0.000000   0.026999
   25  O  2  Z    0.363975   0.000000  -0.245470  -0.031787   0.000000
   26  O  2  X   -0.022769   0.000000  -0.117094  -0.384685   0.000000
   27  O  2  Y    0.000000  -0.397664   0.000000   0.000000  -0.018780
   28  O  2  Z    0.275562   0.000000  -0.317925  -0.061438   0.000000
   29  O  2 XX   -0.003693   0.000000   0.000204  -0.017966   0.000000
   30  O  2 YY    0.009011   0.000000  -0.003147   0.024712   0.000000
   31  O  2 ZZ   -0.005319   0.000000   0.002943  -0.006746   0.000000
   32  O  2 XY    0.000000  -0.006801   0.000000   0.000000  -0.035276
   33  O  2 XZ    0.020067   0.000000  -0.013112   0.006558   0.000000
   34  O  2 YZ    0.000000  -0.002057   0.000000   0.000000   0.019436
   35  O  3  S    0.016450   0.000000   0.055452   0.068682   0.000000
   36  O  3  S   -0.029247   0.000000  -0.064083  -0.071711   0.000000
   37  O  3  S   -0.110302   0.000000  -0.720570  -1.003771   0.000000
   38  O  3  X    0.041691   0.000000  -0.082665   0.136063   0.000000
   39  O  3  Y    0.000000  -0.343228   0.000000   0.000000   0.026999
   40  O  3  Z    0.363975   0.000000   0.245470  -0.031787   0.000000
   41  O  3  X    0.022769   0.000000  -0.117094   0.384685   0.000000
   42  O  3  Y    0.000000  -0.397664   0.000000   0.000000  -0.018780
   43  O  3  Z    0.275562   0.000000   0.317925  -0.061438   0.000000
   44  O  3 XX   -0.003693   0.000000  -0.000204  -0.017966   0.000000
   45  O  3 YY    0.009011   0.000000   0.003147   0.024712   0.000000
   46  O  3 ZZ   -0.005319   0.000000  -0.002943  -0.006746   0.000000
   47  O  3 XY    0.000000   0.006801   0.000000   0.000000   0.035276
   48  O  3 XZ   -0.020067   0.000000  -0.013112  -0.006558   0.000000
   49  O  3 YZ    0.000000  -0.002057   0.000000   0.000000   0.019436

                     21         22         23         24         25
                    0.3891     0.4706     0.4843     0.6266     0.6374
                     A1         B1         A1         B2         A1  
    1  S  1  S   -0.062117   0.000000  -0.057921   0.000000   0.079000
    2  S  1  S   -0.193780   0.000000  -0.112910   0.000000   0.369700
    3  S  1  S   -0.916562   0.000000  -0.763082   0.000000   1.334731
    4  S  1  S    1.256979   0.000000   2.469155   0.000000   0.349501
    5  S  1  X    0.000000   0.177762   0.000000   0.000000   0.000000
    6  S  1  Y    0.000000   0.000000   0.000000   0.009375   0.000000
    7  S  1  Z   -0.258066   0.000000   0.033994   0.000000  -0.122852
    8  S  1  X    0.000000  -0.442829   0.000000   0.000000   0.000000
    9  S  1  Y    0.000000   0.000000   0.000000  -0.070798   0.000000
   10  S  1  Z    0.996996   0.000000   0.052585   0.000000   0.688339
   11  S  1  X    0.000000   1.174329   0.000000   0.000000   0.000000
   12  S  1  Y    0.000000   0.000000   0.000000   0.344565   0.000000
   13  S  1  Z   -0.763511   0.000000   0.614586   0.000000   0.228920
   14  S  1 XX   -0.196824   0.000000   0.550182   0.000000  -0.217516
   15  S  1 YY    0.222269   0.000000  -0.636671   0.000000  -0.207732
   16  S  1 ZZ   -0.025445   0.000000   0.086488   0.000000   0.425248
   17  S  1 XY    0.000000   0.000000   0.000000   0.000000   0.000000
   18  S  1 XZ    0.000000   0.713099   0.000000   0.000000   0.000000
   19  S  1 YZ    0.000000   0.000000   0.000000   0.968883   0.000000
   20  O  2  S    0.012375  -0.018964   0.029479   0.000000   0.048113
   21  O  2  S   -0.054823  -0.031134  -0.001603   0.000000  -0.055245
   22  O  2  S   -0.097802   0.859142  -1.050066   0.000000  -0.598981
   23  O  2  X   -0.030532  -0.201566   0.238845   0.000000   0.153236
   24  O  2  Y    0.000000   0.000000   0.000000  -0.335610   0.000000
   25  O  2  Z   -0.018758   0.187748  -0.221016   0.000000   0.002176
   26  O  2  X   -0.133281   0.478652  -0.459151   0.000000  -0.991155
   27  O  2  Y    0.000000   0.000000   0.000000  -0.093384   0.000000
   28  O  2  Z    0.022241  -0.203629   0.485769   0.000000   0.260185
   29  O  2 XX    0.018215   0.005412  -0.031740   0.000000   0.034825
   30  O  2 YY    0.013492  -0.031266   0.011409   0.000000  -0.014020
   31  O  2 ZZ   -0.031707   0.025854   0.020331   0.000000  -0.020805
   32  O  2 XY    0.000000   0.000000   0.000000   0.047636   0.000000
   33  O  2 XZ    0.014259  -0.046496   0.051099   0.000000  -0.007132
   34  O  2 YZ    0.000000   0.000000   0.000000   0.035202   0.000000
   35  O  3  S    0.012375   0.018964   0.029479   0.000000   0.048113
   36  O  3  S   -0.054823   0.031134  -0.001603   0.000000  -0.055245
   37  O  3  S   -0.097802  -0.859142  -1.050066   0.000000  -0.598981
   38  O  3  X    0.030532  -0.201566  -0.238845   0.000000  -0.153236
   39  O  3  Y    0.000000   0.000000   0.000000  -0.335610   0.000000
   40  O  3  Z   -0.018758  -0.187748  -0.221016   0.000000   0.002176
   41  O  3  X    0.133281   0.478652   0.459151   0.000000   0.991155
   42  O  3  Y    0.000000   0.000000   0.000000  -0.093384   0.000000
   43  O  3  Z    0.022241   0.203629   0.485769   0.000000   0.260185
   44  O  3 XX    0.018215  -0.005412  -0.031740   0.000000   0.034825
   45  O  3 YY    0.013492   0.031266   0.011409   0.000000  -0.014020
   46  O  3 ZZ   -0.031707  -0.025854   0.020331   0.000000  -0.020805
   47  O  3 XY    0.000000   0.000000   0.000000  -0.047636   0.000000
   48  O  3 XZ   -0.014259  -0.046496  -0.051099   0.000000   0.007132
   49  O  3 YZ    0.000000   0.000000   0.000000   0.035202   0.000000

                     26         27         28         29         30
                    0.6508     0.6787     0.7364     0.7638     0.7858
                     B1         A2         A1         A2         A1  
    1  S  1  S    0.000000   0.000000   0.044525   0.000000  -0.015865
    2  S  1  S    0.000000   0.000000   0.283412   0.000000  -0.018154
    3  S  1  S    0.000000   0.000000   0.843919   0.000000  -0.199155
    4  S  1  S    0.000000   0.000000  -0.275495   0.000000   0.279222
    5  S  1  X   -0.235478   0.000000   0.000000   0.000000   0.000000
    6  S  1  Y    0.000000   0.000000   0.000000   0.000000   0.000000
    7  S  1  Z    0.000000   0.000000  -0.069199   0.000000   0.054079
    8  S  1  X    1.285826   0.000000   0.000000   0.000000   0.000000
    9  S  1  Y    0.000000   0.000000   0.000000   0.000000   0.000000
   10  S  1  Z    0.000000   0.000000   0.356592   0.000000  -0.120907
   11  S  1  X   -0.252187   0.000000   0.000000   0.000000   0.000000
   12  S  1  Y    0.000000   0.000000   0.000000   0.000000   0.000000
   13  S  1  Z    0.000000   0.000000  -0.916108   0.000000   0.297197
   14  S  1 XX    0.000000   0.000000   0.444466   0.000000   0.316637
   15  S  1 YY    0.000000   0.000000   0.381876   0.000000   0.159202
   16  S  1 ZZ    0.000000   0.000000  -0.826342   0.000000  -0.475839
   17  S  1 XY    0.000000   1.059536   0.000000  -0.094988   0.000000
   18  S  1 XZ    0.039750   0.000000   0.000000   0.000000   0.000000
   19  S  1 YZ    0.000000   0.000000   0.000000   0.000000   0.000000
   20  O  2  S   -0.055145   0.000000   0.008938   0.000000  -0.009109
   21  O  2  S    0.093348   0.000000   0.058638   0.000000   0.083643
   22  O  2  S    0.608376   0.000000  -0.038695   0.000000  -0.146019
   23  O  2  X   -0.104796   0.000000  -0.014730   0.000000   0.480009
   24  O  2  Y    0.000000   0.117390   0.000000  -0.658200   0.000000
   25  O  2  Z    0.181326   0.000000  -0.170044   0.000000   0.472588
   26  O  2  X    0.946158   0.000000  -0.045601   0.000000  -0.302114
   27  O  2  Y    0.000000   0.460048   0.000000   0.777984   0.000000
   28  O  2  Z   -0.793405   0.000000   0.920820   0.000000  -0.345539
   29  O  2 XX    0.018401   0.000000  -0.017561   0.000000  -0.058375
   30  O  2 YY    0.008622   0.000000   0.004475   0.000000   0.030719
   31  O  2 ZZ   -0.027023   0.000000   0.013086   0.000000   0.027657
   32  O  2 XY    0.000000  -0.020053   0.000000  -0.032506   0.000000
   33  O  2 XZ    0.008902   0.000000  -0.042857   0.000000  -0.030542
   34  O  2 YZ    0.000000   0.057056   0.000000  -0.011738   0.000000
   35  O  3  S    0.055145   0.000000   0.008938   0.000000  -0.009109
   36  O  3  S   -0.093348   0.000000   0.058638   0.000000   0.083643
   37  O  3  S   -0.608376   0.000000  -0.038695   0.000000  -0.146019
   38  O  3  X   -0.104796   0.000000   0.014730   0.000000  -0.480009
   39  O  3  Y    0.000000  -0.117390   0.000000   0.658200   0.000000
   40  O  3  Z   -0.181326   0.000000  -0.170044   0.000000   0.472588
   41  O  3  X    0.946158   0.000000   0.045601   0.000000   0.302114
   42  O  3  Y    0.000000  -0.460048   0.000000  -0.777984   0.000000
   43  O  3  Z    0.793405   0.000000   0.920820   0.000000  -0.345539
   44  O  3 XX   -0.018401   0.000000  -0.017561   0.000000  -0.058375
   45  O  3 YY   -0.008622   0.000000   0.004475   0.000000   0.030719
   46  O  3 ZZ    0.027023   0.000000   0.013086   0.000000   0.027657
   47  O  3 XY    0.000000  -0.020053   0.000000  -0.032506   0.000000
   48  O  3 XZ    0.008902   0.000000   0.042857   0.000000   0.030542
   49  O  3 YZ    0.000000  -0.057056   0.000000   0.011738   0.000000

                     31         32         33         34         35
                    0.8226     0.9213     1.3024     1.5386     1.6891
                     B2         B1         A1         B1         A1  
    1  S  1  S    0.000000   0.000000   0.039755   0.000000  -0.001967
    2  S  1  S    0.000000   0.000000  -0.105508   0.000000  -0.053255
    3  S  1  S    0.000000   0.000000   0.332159   0.000000  -0.077879
    4  S  1  S    0.000000   0.000000   0.513061   0.000000   2.969472
    5  S  1  X    0.000000   0.074622   0.000000  -0.181912   0.000000
    6  S  1  Y   -0.035632   0.000000   0.000000   0.000000   0.000000
    7  S  1  Z    0.000000   0.000000  -0.179587   0.000000  -0.072864
    8  S  1  X    0.000000  -0.330698   0.000000   0.951475   0.000000
    9  S  1  Y    0.061432   0.000000   0.000000   0.000000   0.000000
   10  S  1  Z    0.000000   0.000000   0.704665   0.000000   0.548659
   11  S  1  X    0.000000   0.932357   0.000000   1.087408   0.000000
   12  S  1  Y   -1.000502   0.000000   0.000000   0.000000   0.000000
   13  S  1  Z    0.000000   0.000000   0.039357   0.000000   1.165273
   14  S  1 XX    0.000000   0.000000   0.870197   0.000000   0.219866
   15  S  1 YY    0.000000   0.000000  -0.731693   0.000000  -0.394430
   16  S  1 ZZ    0.000000   0.000000  -0.138503   0.000000   0.174564
   17  S  1 XY    0.000000   0.000000   0.000000   0.000000   0.000000
   18  S  1 XZ    0.000000   0.003018   0.000000   0.808610   0.000000
   19  S  1 YZ   -0.363125   0.000000   0.000000   0.000000   0.000000
   20  O  2  S    0.000000   0.005008   0.035787  -0.012376   0.012642
   21  O  2  S    0.000000   0.008601  -0.469516  -0.678685   1.204931
   22  O  2  S    0.000000   0.114487  -0.304333   2.030876  -2.778359
   23  O  2  X    0.000000   0.333244  -0.467812   0.467292  -0.189458
   24  O  2  Y   -0.572913   0.000000   0.000000   0.000000   0.000000
   25  O  2  Z    0.000000   0.513295   0.441649  -0.248856   0.131991
   26  O  2  X    0.000000  -0.866706   0.069603   0.188350  -0.564723
   27  O  2  Y    1.070940   0.000000   0.000000   0.000000   0.000000
   28  O  2  Z    0.000000  -0.739918  -0.030582  -0.338257   0.173948
   29  O  2 XX    0.000000   0.067497   0.061638  -0.098940   0.045262
   30  O  2 YY    0.000000  -0.038211  -0.129026   0.069840   0.011733
   31  O  2 ZZ    0.000000  -0.029285   0.067388   0.029101  -0.056994
   32  O  2 XY   -0.021869   0.000000   0.000000   0.000000   0.000000
   33  O  2 XZ    0.000000   0.023106   0.016717   0.175532  -0.184132
   34  O  2 YZ    0.021554   0.000000   0.000000   0.000000   0.000000
   35  O  3  S    0.000000  -0.005008   0.035787   0.012376   0.012642
   36  O  3  S    0.000000  -0.008601  -0.469516   0.678685   1.204931
   37  O  3  S    0.000000  -0.114487  -0.304333  -2.030876  -2.778359
   38  O  3  X    0.000000   0.333244   0.467812   0.467292   0.189458
   39  O  3  Y   -0.572913   0.000000   0.000000   0.000000   0.000000
   40  O  3  Z    0.000000  -0.513295   0.441649   0.248856   0.131991
   41  O  3  X    0.000000  -0.866706  -0.069603   0.188350   0.564723
   42  O  3  Y    1.070940   0.000000   0.000000   0.000000   0.000000
   43  O  3  Z    0.000000   0.739918  -0.030582   0.338257   0.173948
   44  O  3 XX    0.000000  -0.067497   0.061638   0.098940   0.045262
   45  O  3 YY    0.000000   0.038211  -0.129026  -0.069840   0.011733
   46  O  3 ZZ    0.000000   0.029285   0.067388  -0.029101  -0.056994
   47  O  3 XY    0.021869   0.000000   0.000000   0.000000   0.000000
   48  O  3 XZ    0.000000   0.023106  -0.016717   0.175532   0.184132
   49  O  3 YZ    0.021554   0.000000   0.000000   0.000000   0.000000

                     36         37         38         39         40
                    1.7694     2.0467     2.0571     2.1256     2.1867
                     B1         B2         A2         A1         B1  
    1  S  1  S    0.000000   0.000000   0.000000   0.006378   0.000000
    2  S  1  S    0.000000   0.000000   0.000000  -0.029021   0.000000
    3  S  1  S    0.000000   0.000000   0.000000   0.039811   0.000000
    4  S  1  S    0.000000   0.000000   0.000000  -0.395277   0.000000
    5  S  1  X   -0.145930   0.000000   0.000000   0.000000  -0.046126
    6  S  1  Y    0.000000  -0.026104   0.000000   0.000000   0.000000
    7  S  1  Z    0.000000   0.000000   0.000000  -0.026090   0.000000
    8  S  1  X    0.392094   0.000000   0.000000   0.000000   0.044882
    9  S  1  Y    0.000000   0.137684   0.000000   0.000000   0.000000
   10  S  1  Z    0.000000   0.000000   0.000000   0.059908   0.000000
   11  S  1  X   -0.401745   0.000000   0.000000   0.000000  -0.063861
   12  S  1  Y    0.000000   0.022218   0.000000   0.000000   0.000000
   13  S  1  Z    0.000000   0.000000   0.000000  -0.184622   0.000000
   14  S  1 XX    0.000000   0.000000   0.000000   0.153805   0.000000
   15  S  1 YY    0.000000   0.000000   0.000000  -0.319131   0.000000
   16  S  1 ZZ    0.000000   0.000000   0.000000   0.165327   0.000000
   17  S  1 XY    0.000000   0.000000   0.026844   0.000000   0.000000
   18  S  1 XZ    0.701929   0.000000   0.000000   0.000000   0.660474
   19  S  1 YZ    0.000000  -0.115516   0.000000   0.000000   0.000000
   20  O  2  S   -0.012503   0.000000   0.000000   0.001435   0.001170
   21  O  2  S    1.021621   0.000000   0.000000  -0.345320   0.511910
   22  O  2  S   -0.900123   0.000000   0.000000   0.431337  -0.331092
   23  O  2  X    0.336576   0.000000   0.000000  -0.111575   0.211191
   24  O  2  Y    0.000000   0.053019  -0.053583   0.000000   0.000000
   25  O  2  Z   -0.252328   0.000000   0.000000   0.041222  -0.164071
   26  O  2  X   -0.201936   0.000000   0.000000   0.149826  -0.100431
   27  O  2  Y    0.000000  -0.073373   0.087581   0.000000   0.000000
   28  O  2  Z    0.272629   0.000000   0.000000  -0.042238   0.196512
   29  O  2 XX    0.109960   0.000000   0.000000  -0.249146   0.169737
   30  O  2 YY   -0.297987   0.000000   0.000000   0.611808   0.471844
   31  O  2 ZZ    0.188026   0.000000   0.000000  -0.362662  -0.641581
   32  O  2 XY    0.000000   0.232685   0.570393   0.000000   0.000000
   33  O  2 XZ    0.162044   0.000000   0.000000  -0.330246  -0.089347
   34  O  2 YZ    0.000000   0.671115   0.424766   0.000000   0.000000
   35  O  3  S    0.012503   0.000000   0.000000   0.001435  -0.001170
   36  O  3  S   -1.021621   0.000000   0.000000  -0.345320  -0.511910
   37  O  3  S    0.900123   0.000000   0.000000   0.431337   0.331092
   38  O  3  X    0.336576   0.000000   0.000000   0.111575   0.211191
   39  O  3  Y    0.000000   0.053019   0.053583   0.000000   0.000000
   40  O  3  Z    0.252328   0.000000   0.000000   0.041222   0.164071
   41  O  3  X   -0.201936   0.000000   0.000000  -0.149826  -0.100431
   42  O  3  Y    0.000000  -0.073373  -0.087581   0.000000   0.000000
   43  O  3  Z   -0.272629   0.000000   0.000000  -0.042238  -0.196512
   44  O  3 XX   -0.109960   0.000000   0.000000  -0.249146  -0.169737
   45  O  3 YY    0.297987   0.000000   0.000000   0.611808  -0.471844
   46  O  3 ZZ   -0.188026   0.000000   0.000000  -0.362662   0.641581
   47  O  3 XY    0.000000  -0.232685   0.570393   0.000000   0.000000
   48  O  3 XZ    0.162044   0.000000   0.000000   0.330246  -0.089347
   49  O  3 YZ    0.000000   0.671115  -0.424766   0.000000   0.000000

                     41         42         43         44         45
                    2.3226     2.4816     2.5193     2.8185     2.9087
                     B1         A2         B2         A1         B1  
    1  S  1  S    0.000000   0.000000   0.000000   0.015600   0.000000
    2  S  1  S    0.000000   0.000000   0.000000   0.114719   0.000000
    3  S  1  S    0.000000   0.000000   0.000000   0.345551   0.000000
    4  S  1  S    0.000000   0.000000   0.000000   0.168010   0.000000
    5  S  1  X    0.078214   0.000000   0.000000   0.000000  -0.201717
    6  S  1  Y    0.000000   0.000000   0.108418   0.000000   0.000000
    7  S  1  Z    0.000000   0.000000   0.000000   0.081365   0.000000
    8  S  1  X   -0.199370   0.000000   0.000000   0.000000   2.122501
    9  S  1  Y    0.000000   0.000000  -0.560577   0.000000   0.000000
   10  S  1  Z    0.000000   0.000000   0.000000  -0.291317   0.000000
   11  S  1  X   -0.038411   0.000000   0.000000   0.000000   0.420818
   12  S  1  Y    0.000000   0.000000  -0.193685   0.000000   0.000000
   13  S  1  Z    0.000000   0.000000   0.000000  -0.196339   0.000000
   14  S  1 XX    0.000000   0.000000   0.000000   0.926062   0.000000
   15  S  1 YY    0.000000   0.000000   0.000000  -0.077607   0.000000
   16  S  1 ZZ    0.000000   0.000000   0.000000  -0.848455   0.000000
   17  S  1 XY    0.000000   0.759498   0.000000   0.000000   0.000000
   18  S  1 XZ   -0.021081   0.000000   0.000000   0.000000   0.990000
   19  S  1 YZ    0.000000   0.000000  -0.569667   0.000000   0.000000
   20  O  2  S    0.002022   0.000000   0.000000  -0.000340  -0.040575
   21  O  2  S   -0.380617   0.000000   0.000000   0.046238  -0.349420
   22  O  2  S    0.418988   0.000000   0.000000  -0.256025   2.056120
   23  O  2  X   -0.188664   0.000000   0.000000   0.031993   0.379249
   24  O  2  Y    0.000000   0.017942   0.001227   0.000000   0.000000
   25  O  2  Z   -0.030529   0.000000   0.000000   0.134791  -0.263584
   26  O  2  X    0.401391   0.000000   0.000000   0.038058   0.889081
   27  O  2  Y    0.000000   0.291055   0.323538   0.000000   0.000000
   28  O  2  Z    0.121481   0.000000   0.000000   0.401962  -0.605695
   29  O  2 XX    0.651667   0.000000   0.000000   0.640077   0.439132
   30  O  2 YY   -0.323797   0.000000   0.000000   0.115478  -0.431719
   31  O  2 ZZ   -0.327871   0.000000   0.000000  -0.755555  -0.007413
   32  O  2 XY    0.000000   0.516722   0.770473   0.000000   0.000000
   33  O  2 XZ    0.316488   0.000000   0.000000   0.404772  -0.799733
   34  O  2 YZ    0.000000  -0.643691  -0.286804   0.000000   0.000000
   35  O  3  S   -0.002022   0.000000   0.000000  -0.000340   0.040575
   36  O  3  S    0.380617   0.000000   0.000000   0.046238   0.349420
   37  O  3  S   -0.418988   0.000000   0.000000  -0.256025  -2.056120
   38  O  3  X   -0.188664   0.000000   0.000000  -0.031993   0.379249
   39  O  3  Y    0.000000  -0.017942   0.001227   0.000000   0.000000
   40  O  3  Z    0.030529   0.000000   0.000000   0.134791   0.263584
   41  O  3  X    0.401391   0.000000   0.000000  -0.038058   0.889081
   42  O  3  Y    0.000000  -0.291055   0.323538   0.000000   0.000000
   43  O  3  Z   -0.121481   0.000000   0.000000   0.401962   0.605695
   44  O  3 XX   -0.651667   0.000000   0.000000   0.640077  -0.439132
   45  O  3 YY    0.323797   0.000000   0.000000   0.115478   0.431719
   46  O  3 ZZ    0.327871   0.000000   0.000000  -0.755555   0.007413
   47  O  3 XY    0.000000   0.516722  -0.770473   0.000000   0.000000
   48  O  3 XZ    0.316488   0.000000   0.000000  -0.404772  -0.799733
   49  O  3 YZ    0.000000   0.643691  -0.286804   0.000000   0.000000

                     46
                    2.9318
                     A1  
    1  S  1  S   -0.076637
    2  S  1  S   -0.575609
    3  S  1  S   -1.747554
    4  S  1  S   -1.456261
    5  S  1  X    0.000000
    6  S  1  Y    0.000000
    7  S  1  Z    0.116889
    8  S  1  X    0.000000
    9  S  1  Y    0.000000
   10  S  1  Z   -1.360254
   11  S  1  X    0.000000
   12  S  1  Y    0.000000
   13  S  1  Z   -0.294155
   14  S  1 XX   -0.370822
   15  S  1 YY    0.475328
   16  S  1 ZZ   -0.104506
   17  S  1 XY    0.000000
   18  S  1 XZ    0.000000
   19  S  1 YZ    0.000000
   20  O  2  S   -0.046853
   21  O  2  S   -0.479477
   22  O  2  S    1.953595
   23  O  2  X    0.268410
   24  O  2  Y    0.000000
   25  O  2  Z   -0.163323
   26  O  2  X    0.835383
   27  O  2  Y    0.000000
   28  O  2  Z   -0.545989
   29  O  2 XX    0.577425
   30  O  2 YY   -0.465539
   31  O  2 ZZ   -0.111885
   32  O  2 XY    0.000000
   33  O  2 XZ   -0.710011
   34  O  2 YZ    0.000000
   35  O  3  S   -0.046853
   36  O  3  S   -0.479477
   37  O  3  S    1.953595
   38  O  3  X   -0.268410
   39  O  3  Y    0.000000
   40  O  3  Z   -0.163323
   41  O  3  X   -0.835383
   42  O  3  Y    0.000000
   43  O  3  Z   -0.545989
   44  O  3 XX    0.577425
   45  O  3 YY   -0.465539
   46  O  3 ZZ   -0.111885
   47  O  3 XY    0.000000
   48  O  3 XZ    0.710011
   49  O  3 YZ    0.000000
 ...... END OF RHF CALCULATION ......
 STEP CPU TIME =     4.55 TOTAL CPU TIME =        4.8 (    0.1 MIN)
 TOTAL WALL CLOCK TIME=        4.8 SECONDS, CPU UTILIZATION IS 100.00%

     ---------------------------------------------------------------------
     PROPERTIES FOR THE PBE      DFT FUNCTIONAL (RHF  TYPE) DENSITY MATRIX
     ---------------------------------------------------------------------

          -----------------
          ENERGY COMPONENTS
          -----------------

         WAVEFUNCTION NORMALIZATION =       1.0000000000

                ONE ELECTRON ENERGY =   -1013.3455021956
                TWO ELECTRON ENERGY =     335.3018946732
           NUCLEAR REPULSION ENERGY =     130.1179768731
                                      ------------------
                       TOTAL ENERGY =    -547.9256306493

 ELECTRON-ELECTRON POTENTIAL ENERGY =     335.3018946732
  NUCLEUS-ELECTRON POTENTIAL ENERGY =   -1564.1598818145
   NUCLEUS-NUCLEUS POTENTIAL ENERGY =     130.1179768731
                                      ------------------
             TOTAL POTENTIAL ENERGY =   -1098.7400102682
               TOTAL KINETIC ENERGY =     550.8143796189
                 VIRIAL RATIO (V/T) =       1.9947554946

          ---------------------------------------
          MULLIKEN AND LOWDIN POPULATION ANALYSES
          ---------------------------------------

     ATOMIC MULLIKEN POPULATION IN EACH MOLECULAR ORBITAL

                      1          2          3          4          5

                  2.000000   2.000000   2.000000   2.000000   2.000000

    1             2.000073  -0.000074   0.002374   2.003045   1.998585
    2            -0.000037   1.000037   0.998813  -0.001523   0.000707
    3            -0.000037   1.000037   0.998813  -0.001523   0.000707

                      6          7          8          9         10

                  2.000000   2.000000   2.000000   2.000000   2.000000

    1             1.999943   1.999241   0.741727   0.605043   1.091139
    2             0.000029   0.000380   0.629137   0.697478   0.454430
    3             0.000029   0.000380   0.629137   0.697478   0.454430

                     11         12         13         14         15

                  2.000000   2.000000   2.000000   2.000000   2.000000

    1             0.909346   0.264582   0.225765   0.200137   0.231557
    2             0.545327   0.867709   0.887118   0.899932   0.884222
    3             0.545327   0.867709   0.887118   0.899932   0.884222

                     16

                  2.000000

    1             1.166638
    2             0.416681
    3             0.416681

               ----- POPULATIONS IN EACH AO -----
                             MULLIKEN      LOWDIN
              1  S  1  S      2.00026     1.99581
              2  S  1  S      2.01121     1.91918
              3  S  1  S      0.87845     0.51334
              4  S  1  S      0.95219     0.57467
              5  S  1  X      1.99663     1.95789
              6  S  1  Y      1.99558     1.95464
              7  S  1  Z      1.99715     1.96573
              8  S  1  X      0.71293     0.61340
              9  S  1  Y      0.65402     0.58146
             10  S  1  Z      0.88373     0.83969
             11  S  1  X      0.12358     0.25999
             12  S  1  Y      0.21698     0.28844
             13  S  1  Z      0.22109     0.36758
             14  S  1 XX      0.15820     0.35537
             15  S  1 YY      0.16654     0.22790
             16  S  1 ZZ      0.20014     0.33336
             17  S  1 XY      0.22774     0.25563
             18  S  1 XZ      0.04270     0.28101
             19  S  1 YZ      0.00000     0.04251
             20  O  2  S      1.99795     1.97890
             21  O  2  S      0.79965     0.60408
             22  O  2  S      0.89621     0.49569
             23  O  2  X      1.09998     1.06188
             24  O  2  Y      0.91608     0.86453
             25  O  2  Z      1.08007     1.05117
             26  O  2  X      0.43433     0.52341
             27  O  2  Y      0.51543     0.55489
             28  O  2  Z      0.50375     0.58617
             29  O  2 XX      0.00729     0.20198
             30  O  2 YY      0.00585     0.18283
             31  O  2 ZZ      0.00896     0.18706
             32  O  2 XY      0.01008     0.01313
             33  O  2 XZ      0.00482     0.02439
             34  O  2 YZ      0.00000     0.00611
             35  O  3  S      1.99795     1.97890
             36  O  3  S      0.79965     0.60408
             37  O  3  S      0.89621     0.49569
             38  O  3  X      1.09998     1.06188
             39  O  3  Y      0.91608     0.86453
             40  O  3  Z      1.08007     1.05117
             41  O  3  X      0.43433     0.52341
             42  O  3  Y      0.51543     0.55489
             43  O  3  Z      0.50375     0.58617
             44  O  3 XX      0.00729     0.20198
             45  O  3 YY      0.00585     0.18283
             46  O  3 ZZ      0.00896     0.18706
             47  O  3 XY      0.01008     0.01313
             48  O  3 XZ      0.00482     0.02439
             49  O  3 YZ      0.00000     0.00611

          ----- MULLIKEN ATOMIC OVERLAP POPULATIONS -----
          (OFF-DIAGONAL ELEMENTS NEED TO BE MULTIPLIED BY 2)

             1           2           3

    1   14.5012830
    2    0.4689189   7.9413056
    3    0.4689189  -0.1297848   7.9413056

          TOTAL MULLIKEN AND LOWDIN ATOMIC POPULATIONS
       ATOM         MULL.POP.    CHARGE          LOW.POP.     CHARGE
    1 S            15.439121    0.560879        15.327581    0.672419
    2 O             8.280440   -0.280440         8.336209   -0.336209
    3 O             8.280440   -0.280440         8.336209   -0.336209

          MULLIKEN SPHERICAL HARMONIC POPULATIONS
       ATOM           S       P       D      F      G      H      I    TOTAL
    1 S             5.84    8.80    0.80   0.00   0.00   0.00   0.00   15.44
    2 O             3.69    4.55    0.04   0.00   0.00   0.00   0.00    8.28
    3 O             3.69    4.55    0.04   0.00   0.00   0.00   0.00    8.28

          -------------------------------
          BOND ORDER AND VALENCE ANALYSIS     BOND ORDER THRESHOLD=0.050
          -------------------------------

                   BOND                       BOND                       BOND
  ATOM PAIR DIST  ORDER      ATOM PAIR DIST  ORDER      ATOM PAIR DIST  ORDER
    1   2  1.200  2.080        1   3  1.200  2.080        2   3  1.966  0.070

                       TOTAL       BONDED        FREE
      ATOM            VALENCE     VALENCE     VALENCE
    1 S                 4.159       4.159       0.000
    2 O                 2.150       2.150       0.000
    3 O                 2.150       2.150       0.000

          ---------------------
          ELECTROSTATIC MOMENTS
          ---------------------

 POINT   1           X           Y           Z (BOHR)    CHARGE
                 0.000000    0.000000    0.000000        0.00 (A.U.)
         DX          DY          DZ         /D/  (DEBYE)
     0.000000    0.000000   -1.361106    1.361106
 ...... END OF PROPERTY EVALUATION ......
 STEP CPU TIME =     0.00 TOTAL CPU TIME =        4.8 (    0.1 MIN)
 TOTAL WALL CLOCK TIME=        4.8 SECONDS, CPU UTILIZATION IS  99.79%
               580000  WORDS OF DYNAMIC MEMORY USED
 EXECUTION OF GAMESS TERMINATED NORMALLY Thu Feb 26 00:12:52 2015
 DDI: 263624 bytes (0.3 MB / 0 MWords) used by master data server.

 ----------------------------------------
 CPU timing information for all processes
 ========================================
 0: 4.720 + 0.132 = 4.853
 ----------------------------------------
 ddikick.x: exited gracefully.
----- accounting info -----
Files used on the master node dftfe.crc.nd.edu were:
-rw-r--r-- 1 pmehta1 campus   37475 Feb 26 00:12 /tmp/gamess.dat
-rw-r--r-- 1 pmehta1 campus     142 Feb 26 00:12 /tmp/gamess.F05
-rw-r--r-- 1 pmehta1 campus 2340312 Feb 26 00:12 /tmp/gamess.F08
-rw-r--r-- 1 pmehta1 campus 1220440 Feb 26 00:12 /tmp/gamess.F10
Thu Feb 26 00:12:55 EST 2015
0.240u 0.180s 0:08.26 5.0%	0+0k 0+112io 0pf+0w
