----- GAMESS execution script 'rungms' -----
This job is running on host dftfe.crc.nd.edu
under operating system Linux at Thu Feb 26 00:20:16 EST 2015
Available scratch disk space (Kbyte units) at beginning of the job is
Filesystem     1K-blocks     Used Available Use% Mounted on
/dev/sda2      147771864 22816396 117449036  17% /
GAMESS temporary binary files will be written to /tmp
GAMESS supplementary output files will be written to /tmp
Copying input file gamess.inp to your run's scratch directory...

 Distributed Data Interface kickoff program.
 Initiating 1 compute processes on 1 nodes to run the following command:
 /opt/crc/gamess/2012R1/gamess/gamess.00.x gamess 

          ******************************************************
          *         GAMESS VERSION =  1 MAY 2012 (R1)          *
          *             FROM IOWA STATE UNIVERSITY             *
          * M.W.SCHMIDT, K.K.BALDRIDGE, J.A.BOATZ, S.T.ELBERT, *
          *   M.S.GORDON, J.H.JENSEN, S.KOSEKI, N.MATSUNAGA,   *
          *          K.A.NGUYEN, S.J.SU, T.L.WINDUS,           *
          *       TOGETHER WITH M.DUPUIS, J.A.MONTGOMERY       *
          *         J.COMPUT.CHEM.  14, 1347-1363(1993)        *
          **************** 64 BIT LINUX VERSION ****************

  SINCE 1993, STUDENTS AND POSTDOCS WORKING AT IOWA STATE UNIVERSITY
  AND ALSO IN THEIR VARIOUS JOBS AFTER LEAVING ISU HAVE MADE IMPORTANT
  CONTRIBUTIONS TO THE CODE:
     IVANA ADAMOVIC, CHRISTINE AIKENS, YURI ALEXEEV, POOJA ARORA,
     ANDREY ASADCHEV, ROB BELL, PRADIPTA BANDYOPADHYAY, JONATHAN BENTZ,
     BRETT BODE, GALINA CHABAN, WEI CHEN, CHEOL HO CHOI, PAUL DAY,
     ALBERT DEFUSCO, TIM DUDLEY, DMITRI FEDOROV, GRAHAM FLETCHER,
     MARK FREITAG, KURT GLAESEMANN, DAN KEMP, GRANT MERRILL,
     NORIYUKI MINEZAWA, JONATHAN MULLIN, TAKESHI NAGATA,
     SEAN NEDD, HEATHER NETZLOFF, BOSILJKA NJEGIC, RYAN OLSON, MIKE PAK,
     JIM SHOEMAKER, LYUDMILA SLIPCHENKO, SAROM SOK, JIE SONG,
     TETSUYA TAKETSUGU, SIMON WEBB, SOOHAENG YOO, FEDERICO ZAHARIEV

  ADDITIONAL CODE HAS BEEN PROVIDED BY COLLABORATORS IN OTHER GROUPS:
     IOWA STATE UNIVERSITY:
          JOE IVANIC, LAIMUTIS BYTAUTAS, KLAUS RUEDENBERG
     UNIVERSITY OF TOKYO: KIMIHIKO HIRAO, TAKAHITO NAKAJIMA,
          TAKAO TSUNEDA, MUNEAKI KAMIYA, SUSUMU YANAGISAWA,
          KIYOSHI YAGI, MAHITO CHIBA, SEIKEN TOKURA, NAOAKI KAWAKAMI
     UNIVERSITY OF AARHUS: FRANK JENSEN
     UNIVERSITY OF IOWA: VISVALDAS KAIRYS, HUI LI
     NATIONAL INST. OF STANDARDS AND TECHNOLOGY: WALT STEVENS, DAVID GARMER
     UNIVERSITY OF PISA: BENEDETTA MENNUCCI, JACOPO TOMASI
     UNIVERSITY OF MEMPHIS: HENRY KURTZ, PRAKASHAN KORAMBATH
     UNIVERSITY OF ALBERTA: TOBY ZENG, MARIUSZ KLOBUKOWSKI
     UNIVERSITY OF NEW ENGLAND: MARK SPACKMAN
     MIE UNIVERSITY: HIROAKI UMEDA
     MICHIGAN STATE UNIVERSITY:
          KAROL KOWALSKI, MARTA WLOCH, JEFFREY GOUR, JESSE LUTZ, PIOTR PIECUCH
     UNIVERSITY OF SILESIA: MONIKA MUSIAL, STANISLAW KUCHARSKI
     FACULTES UNIVERSITAIRES NOTRE-DAME DE LA PAIX:
          OLIVIER QUINET, BENOIT CHAMPAGNE
     UNIVERSITY OF CALIFORNIA - SANTA BARBARA: BERNARD KIRTMAN
     INSTITUTE FOR MOLECULAR SCIENCE:
          KAZUYA ISHIMURA, MICHIO KATOUDA, AND SHIGERU NAGASE
     UNIVERSITY OF NOTRE DAME: DAN CHIPMAN
     KYUSHU UNIVERSITY:
          HARUYUKI NAKANO,
          FENG LONG GU, JACEK KORCHOWIEC, MARCIN MAKOWSKI, AND YURIKO AOKI,
          HIROTOSHI MORI AND EISAKU MIYOSHI
     PENNSYLVANIA STATE UNIVERSITY:
          TZVETELIN IORDANOV, CHET SWALINA, JONATHAN SKONE,
          SHARON HAMMES-SCHIFFER
     WASEDA UNIVERSITY:
          MASATO KOBAYASHI, TOMOKO AKAMA, TSUGUKI TOUMA,
          TAKESHI YOSHIKAWA, YASUHIRO IKABATA, HIROMI NAKAI
     UNIVERSITY OF NEBRASKA:
          PEIFENG SU, DEJUN SI, NANDUN THELLAMUREGE, YALI WANG, HUI LI
     UNIVERSITY OF ZURICH:
          ROBERTO PEVERATI, KIM BALDRIDGE
     N. COPERNICUS UNIVERSITY AND JACKSON STATE UNIVERSITY:
          MARIA BARYSZ

 EXECUTION OF GAMESS BEGUN Thu Feb 26 00:20:16 2015

            ECHO OF THE FIRST FEW INPUT CARDS -
 INPUT CARD> $BASIS GBASIS=PC1 $END                                                         
 INPUT CARD> $CONTRL COORD=ZMT ISPHER=1 RUNTYP=ENERGY DFTTYP=PBE $END                       
 INPUT CARD>                                                                                
 INPUT CARD> $DATA                                                                          
 INPUT CARD>Title                                                                           
 INPUT CARD>Cnv 2                                                                           
 INPUT CARD>                                                                                
 INPUT CARD>S                                                                               
 INPUT CARD>O 1 1.80                                                                        
 INPUT CARD>O 1 1.80 2 100.0                                                                
 INPUT CARD> $END                                                                           
    1000000 WORDS OF MEMORY AVAILABLE

     BASIS OPTIONS
     -------------
     GBASIS=PC1          IGAUSS=       0      POLAR=NONE    
     NDFUNC=       0     NFFUNC=       0     DIFFSP=       F
     NPFUNC=       0      DIFFS=       F     BASNAM=        


     RUN TITLE
     ---------
 Title                                                                           

 THE POINT GROUP OF THE MOLECULE IS CNV     
 THE ORDER OF THE PRINCIPAL AXIS IS     2

 YOUR FULLY SUBSTITUTED Z-MATRIX IS
 S   
 O      1   1.8000000
 O      1   1.8000000  2  100.0000

 THE MOMENTS OF INERTIA ARE (AMU-ANGSTROM**2)
 IXX=    21.406   IYY=    60.823   IZZ=    82.229

 ATOM      ATOMIC                      COORDINATES (BOHR)
           CHARGE         X                   Y                   Z
 S          16.0     0.0000000000        0.0000000000       -1.0935265848
 O           8.0    -2.6057053654        0.0000000000        1.0929198263
 O           8.0     2.6057053654        0.0000000000        1.0929198263

          INTERNUCLEAR DISTANCES (ANGS.)
          ------------------------------

                1 S          2 O          3 O     

   1 S       0.0000000    1.8000000 *  1.8000000 *
   2 O       1.8000000 *  0.0000000    2.7577600 *
   3 O       1.8000000 *  2.7577600 *  0.0000000  

  * ... LESS THAN  3.000


     ATOMIC BASIS SET
     ----------------
 THE CONTRACTED PRIMITIVE FUNCTIONS HAVE BEEN UNNORMALIZED
 THE CONTRACTED BASIS FUNCTIONS ARE NOW NORMALIZED TO UNITY

  SHELL TYPE  PRIMITIVE        EXPONENT          CONTRACTION COEFFICIENT(S)

 S         

      1   S       1         55510.0000000    0.000587229760
      1   S       2          8326.7000000    0.004532413947
      1   S       3          1895.6000000    0.023265261648
      1   S       4           536.7700000    0.089696133027
      1   S       5           174.6700000    0.254098332277
      1   S       6            62.5780000    0.438665087637
      1   S       7            23.5730000    0.314547135094
      1   S       8             5.8908000    0.032727897102

      2   S       9          8326.7000000   -0.000019755715
      2   S      10          1895.6000000   -0.000043822381
      2   S      11           536.7700000   -0.001730264906
      2   S      12           174.6700000   -0.009381263460
      2   S      13            62.5780000   -0.064050766303
      2   S      14            23.5730000   -0.082478179196
      2   S      15             5.8908000    0.478342956889
      2   S      16             2.1852000    0.626896670208

      3   S      17          1895.6000000    0.000016227260
      3   S      18           536.7700000    0.000191135619
      3   S      19           174.6700000    0.001952069674
      3   S      20            62.5780000    0.010578701087
      3   S      21            23.5730000    0.022164934551
      3   S      22             5.8908000   -0.184968323118
      3   S      23             2.1852000   -0.480920750976
      3   S      24             0.4528200    1.243822243872

      4   S      25             0.1620200    1.000000000000

      5   P      26           395.4500000    0.004642761329
      5   P      27            92.8340000    0.036023396489
      5   P      28            29.2660000    0.149058869978
      5   P      29            10.5950000    0.360033266263
      5   P      30             4.0272000    0.455756476221
      5   P      31             1.5484000    0.206167664178

      6   P      32            92.8340000    0.000169901442
      6   P      33            29.2660000   -0.002541839934
      6   P      34            10.5950000   -0.007867614595
      6   P      35             4.0272000   -0.037231009184
      6   P      36             1.5484000    0.161417246830
      6   P      37             0.4613400    0.902230419976

      7   P      38             0.1313100    1.000000000000

      8   D      39             0.5500000    1.000000000000

 O         

     15   S      40          2306.7000000    0.005424388755
     15   S      41           347.1500000    0.040474749465
     15   S      42            78.8900000    0.180219634554
     15   S      43            21.8760000    0.462370311787
     15   S      44             6.6646000    0.454888396263

     16   S      45           347.1500000   -0.000655003786
     16   S      46            78.8900000   -0.005362052952
     16   S      47            21.8760000   -0.074902158894
     16   S      48             6.6646000   -0.181442579655
     16   S      49             1.0669000    1.102006874042

     17   S      50             0.3070000    1.000000000000

     18   P      51            17.0220000    0.068979967443
     18   P      52             3.6838000    0.351985516325
     18   P      53             0.9923400    0.724036547822

     19   P      54             0.2448700    1.000000000000

     20   D      55             1.0000000    1.000000000000

 TOTAL NUMBER OF BASIS SET SHELLS             =   20
 NUMBER OF CARTESIAN GAUSSIAN BASIS FUNCTIONS =   49
 NOTE: THIS RUN WILL RESTRICT THE MO VARIATION SPACE TO SPHERICAL HARMONICS.
 THE NUMBER OF ORBITALS KEPT IN THE VARIATIONAL SPACE WILL BE PRINTED LATER.
 NUMBER OF ELECTRONS                          =   32
 CHARGE OF MOLECULE                           =    0
 SPIN MULTIPLICITY                            =    1
 NUMBER OF OCCUPIED ORBITALS (ALPHA)          =   16
 NUMBER OF OCCUPIED ORBITALS (BETA )          =   16
 TOTAL NUMBER OF ATOMS                        =    3
 THE NUCLEAR REPULSION ENERGY IS       87.5415081320

     LEBEDEV GRID-BASED DFT OPTIONS
     ------------------------------
     DFTTYP=PBE     
     NRAD  =      96     NLEB  =     302
     NRAD0 =      24     NLEB0 =     110
     SWOFF =    5.00E-03 (PURE SCF -> DFT)
     SWITCH=    3.00E-04 (COARSE -> TIGHT GRID)
     THRESH=    0.00E+00 GTHRE=    1.00E+00

 GRIMME'S EMPIRICAL DISPERSION CORRECTION= F

     $CONTRL OPTIONS
     ---------------
 SCFTYP=RHF          RUNTYP=ENERGY       EXETYP=RUN     
 MPLEVL=       0     CITYP =NONE         CCTYP =NONE         VBTYP =NONE    
 DFTTYP=PBE          TDDFT =NONE    
 MULT  =       1     ICHARG=       0     NZVAR =       0     COORD =ZMT     
 PP    =NONE         RELWFN=NONE         LOCAL =NONE         NUMGRD=       F
 ISPHER=       1     NOSYM =       0     MAXIT =      30     UNITS =ANGS    
 PLTORB=       F     MOLPLT=       F     AIMPAC=       F     FRIEND=        
 NPRINT=       7     IREST =       0     GEOM  =INPUT   
 NORMF =       0     NORMP =       0     ITOL  =      20     ICUT  =       9
 INTTYP=BEST         GRDTYP=BEST         QMTTOL= 1.0E-06

     $SYSTEM OPTIONS
     ---------------
  REPLICATED MEMORY=     1000000 WORDS (ON EVERY NODE).
 DISTRIBUTED MEMDDI=           0 MILLION WORDS IN AGGREGATE,
 MEMDDI DISTRIBUTED OVER   1 PROCESSORS IS           0 WORDS/PROCESSOR.
 TOTAL MEMORY REQUESTED ON EACH PROCESSOR=     1000000 WORDS.
 TIMLIM=      525600.00 MINUTES, OR     365.0 DAYS.
 PARALL= F  BALTYP=  DLB     KDIAG=    0  COREFL= F
 MXSEQ2=     300 MXSEQ3=     150

          ----------------
          PROPERTIES INPUT
          ----------------

     MOMENTS            FIELD           POTENTIAL          DENSITY
 IEMOM =       1   IEFLD =       0   IEPOT =       0   IEDEN =       0
 WHERE =COMASS     WHERE =NUCLEI     WHERE =NUCLEI     WHERE =NUCLEI  
 OUTPUT=BOTH       OUTPUT=BOTH       OUTPUT=BOTH       OUTPUT=BOTH    
 IEMINT=       0   IEFINT=       0                     IEDINT=       0
                                                       MORB  =       0
          EXTRAPOLATION IN EFFECT
          DIIS IN EFFECT
 ORBITAL PRINTING OPTION: NPREO=     1    49     2     1

     -------------------------------
     INTEGRAL TRANSFORMATION OPTIONS
     -------------------------------
     NWORD  =            0
     CUTOFF = 1.0E-09     MPTRAN =       0
     DIRTRF =       F     AOINTS =DUP     

          ----------------------
          INTEGRAL INPUT OPTIONS
          ----------------------
 NOPK  =       1 NORDER=       0 SCHWRZ=       F

   --- ENCODED Z MATRIX ---
 COORD  TYPE   I   J   K   L   M   N
    1      1    3   1
    2      1    2   1
    3      2    2   1   3

 THE DETERMINANT OF THE G MATRIX IS 10**(    -4)

 THE DETERMINANT OF THE G MATRIX IS 10**(    -4)
 * * * WARNING * * *
 YOUR B MATRIX HAS A SMALL DETERMINANT.
 THIS SUGGESTS YOU MAY HAVE BADLY CHOSEN COORDINATES.

     ------------------------------------------
     THE POINT GROUP IS CNV, NAXIS= 2, ORDER= 4
     ------------------------------------------

 -- VARIATIONAL SPACE WILL BE RESTRICTED TO PURE SPHERICAL HARMONICS ONLY --
 AFTER EXCLUDING CONTAMINANT COMBINATIONS FROM THE CARTESIAN GAUSSIAN BASIS
 SET, THE NUMBER OF SPHERICAL HARMONICS KEPT IN THE VARIATION SPACE IS   46

     DIMENSIONS OF THE SYMMETRY SUBSPACES ARE
 A1  =   19     A2  =    5     B1  =   14     B2  =    8

 ..... DONE SETTING UP THE RUN .....
 STEP CPU TIME =     0.01 TOTAL CPU TIME =        0.0 (    0.0 MIN)
 TOTAL WALL CLOCK TIME=        0.0 SECONDS, CPU UTILIZATION IS  50.00%

          ********************
          1 ELECTRON INTEGRALS
          ********************
 ...... END OF ONE-ELECTRON INTEGRALS ......
 STEP CPU TIME =     0.00 TOTAL CPU TIME =        0.0 (    0.0 MIN)
 TOTAL WALL CLOCK TIME=        0.0 SECONDS, CPU UTILIZATION IS  50.00%

          -------------
          GUESS OPTIONS
          -------------
          GUESS =HUCKEL            NORB  =       0          NORDER=       0
          MIX   =       F          PRTMO =       F          PUNMO =       F
          TOLZ  = 1.0E-08          TOLE  = 1.0E-05
          SYMDEN=       F          PURIFY=       F

 INITIAL GUESS ORBITALS GENERATED BY HUCKEL   ROUTINE.
 HUCKEL GUESS REQUIRES     21583 WORDS.

 STATISTICS FOR GENERATION OF SYMMETRY ORBITAL -Q- MATRIX
 NUMBER OF CARTESIAN ATOMIC ORBITALS=         49
 NUMBER OF SPHERICAL CONTAMINANTS DROPPED=     3
 NUMBER OF LINEARLY DEPENDENT MOS DROPPED=     0
 TOTAL NUMBER OF MOS IN VARIATION SPACE=      46

 SYMMETRIES FOR INITIAL GUESS ORBITALS FOLLOW.   BOTH SET(S).
    16 ORBITALS ARE OCCUPIED (    7 CORE ORBITALS).
     8=?A1      9=?B1     10=?A1     11=?B1     12=?B2     13=A1      14=?A2 
    15=B1      16=?A1     17=B2      18=B1      19=A1      20=A1      21=A1  
    22=A1      23=A1      24=A1      25=A1      26=A1  
 ...... END OF INITIAL ORBITAL SELECTION ......
 STEP CPU TIME =     0.01 TOTAL CPU TIME =        0.0 (    0.0 MIN)
 TOTAL WALL CLOCK TIME=        0.0 SECONDS, CPU UTILIZATION IS  66.67%

                    ----------------------
                    AO INTEGRAL TECHNOLOGY
                    ----------------------
     S,P,L SHELL ROTATED AXIS INTEGRALS, REPROGRAMMED BY
        KAZUYA ISHIMURA (IMS) AND JOSE SIERRA (SYNSTAR).
     S,P,D,L SHELL ROTATED AXIS INTEGRALS PROGRAMMED BY
        KAZUYA ISHIMURA (INSTITUTE FOR MOLECULAR SCIENCE).
     S,P,D,F,G SHELL TO TOTAL QUARTET ANGULAR MOMENTUM SUM 5,
        ERIC PROGRAM BY GRAHAM FLETCHER (ELORET AND NASA ADVANCED
        SUPERCOMPUTING DIVISION, AMES RESEARCH CENTER).
     S,P,D,F,G,L SHELL GENERAL RYS QUADRATURE PROGRAMMED BY
        MICHEL DUPUIS (PACIFIC NORTHWEST NATIONAL LABORATORY).

          --------------------
          2 ELECTRON INTEGRALS
          --------------------

 THE -PK- OPTION IS OFF, THE INTEGRALS ARE NOT IN SUPERMATRIX FORM.
 STORING   15000 INTEGRALS/RECORD ON DISK, USING 12 BYTES/INTEGRAL.
 TWO ELECTRON INTEGRAL EVALUATION REQUIRES   90606 WORDS OF MEMORY.
 II,JST,KST,LST =  1  1  1  1 NREC =         1 INTLOC =    1
 II,JST,KST,LST =  2  1  1  1 NREC =         1 INTLOC =    2
 II,JST,KST,LST =  3  1  1  1 NREC =         1 INTLOC =    7
 II,JST,KST,LST =  4  1  1  1 NREC =         1 INTLOC =   22
 II,JST,KST,LST =  5  1  1  1 NREC =         1 INTLOC =   56
 II,JST,KST,LST =  6  1  1  1 NREC =         1 INTLOC =  125
 II,JST,KST,LST =  7  1  1  1 NREC =         1 INTLOC =  329
 II,JST,KST,LST =  8  1  1  1 NREC =         1 INTLOC =  776
 II,JST,KST,LST =  9  1  1  1 NREC =         1 INTLOC = 2864
 II,JST,KST,LST = 10  1  1  1 NREC =         1 INTLOC = 2864
 II,JST,KST,LST = 11  1  1  1 NREC =         1 INTLOC = 2864
 II,JST,KST,LST = 12  1  1  1 NREC =         1 INTLOC = 2864
 II,JST,KST,LST = 13  1  1  1 NREC =         1 INTLOC = 2864
 II,JST,KST,LST = 14  1  1  1 NREC =         1 INTLOC = 2864
 II,JST,KST,LST = 15  1  1  1 NREC =         1 INTLOC = 2864
 II,JST,KST,LST = 16  1  1  1 NREC =         1 INTLOC = 4864
 II,JST,KST,LST = 17  1  1  1 NREC =         1 INTLOC = 7967
 II,JST,KST,LST = 18  1  1  1 NREC =         1 INTLOC =12340
 II,JST,KST,LST = 19  1  1  1 NREC =         2 INTLOC =14462
 II,JST,KST,LST = 20  1  1  1 NREC =         5 INTLOC =  253
 TOTAL NUMBER OF NONZERO TWO-ELECTRON INTEGRALS =              172042
         12 INTEGRAL RECORDS WERE STORED ON DISK FILE  8.
  ...... END OF TWO-ELECTRON INTEGRALS .....
 STEP CPU TIME =     0.15 TOTAL CPU TIME =        0.2 (    0.0 MIN)
 TOTAL WALL CLOCK TIME=        0.2 SECONDS, CPU UTILIZATION IS  94.44%

          --------------------------
               R-PBE SCF CALCULATION
          --------------------------

     NUCLEAR ENERGY =        87.5415081320
     MAXIT =   30     NPUNCH=    2
     EXTRAP=T  DAMP=F  SHIFT=F  RSTRCT=F  DIIS=T  DEM=F  SOSCF=F
         DENSITY MATRIX CONVERGENCE THRESHOLD=  1.00E-05
     COARSE -> FINE DFT GRID SWITCH THRESHOLD=  3.00E-04 (SWITCH IN $DFT)
                   HF -> DFT SWITCH THRESHOLD=  5.00E-03 (SWOFF IN $DFT)
     MEMORY REQUIRED FOR RHF ITERS=    183108 WORDS.

 DFT CODE IS SWITCHING FROM THE FINE GRID NRAD= 96,  NLEB=  302
                      TO THE COARSE GRID NRAD0= 24, NLEB0=  110

     EXCHANGE FUNCTIONAL   =PBE       
     CORRELATION FUNCTIONAL=PBE       
     DFT THRESHOLD         =.460E-07
     GRID CHANGE THRESHOLD =.300E-03
 FOR AN EULER-MACLAURIN QUADRATURE USING  96 RADIAL POINTS:
 SMALLEST GAUSSIAN PRIMITIVE EXPONENT=        0.1313100000 OF TYPE -P-
 ON ATOM NUMBER   1 HAS RADIAL NORMALIZATION=  1.000000
  LARGEST GAUSSIAN PRIMITIVE EXPONENT=    55510.0000000000 OF TYPE -S-
 ON ATOM NUMBER   1 HAS RADIAL NORMALIZATION=  0.999999
 DFT IS SWITCHED OFF, PERFORMING PURE SCF UNTIL SWOFF THRESHOLD IS REACHED.

 ITER EX DEM     TOTAL ENERGY        E CHANGE  DENSITY CHANGE    DIIS ERROR
   1  0  0     -545.8333502447  -545.8333502447   0.632439598   1.008895744
   2  1  0     -546.0237859141    -0.1904356694   0.738384621   0.589797584
   3  2  0     -545.6852574823     0.3385284318   0.957768660   0.601501555
   4  3  0     -544.5178127306     1.1674447517   1.140191868   1.076988866
   5  0  0     -543.8705001207     0.6473126099   0.720119887   0.877929619
          * * *   INITIATING DIIS PROCEDURE   * * *
   6  1  0     -546.8575385641    -2.9870384435   0.246269836   0.089531827
   7  2  0     -546.8622200325    -0.0046814683   0.095300019   0.130192410
   8  3  0     -546.9087661289    -0.0465460964   0.020562234   0.023786358
   9  4  0     -546.9117161525    -0.0029500236   0.017963090   0.014145666
  10  5  0     -546.9127226765    -0.0010065239   0.008547088   0.005773107
  11  6  0     -546.9129882360    -0.0002655595   0.007500897   0.002402191
  12  7  0     -546.9130759200    -0.0000876840   0.005092916   0.001313452
  13  8  0     -546.9131003879    -0.0000244679   0.001942262   0.000530476
 CONVERGED TO SWOFF, SO DFT CALCULATION IS NOW SWITCHED ON.
          * * *   INITIATING DIIS PROCEDURE   * * *
  14  9  0     -548.0961528940    -1.1830525061   0.436114194   0.101192771
  15 10  0     -548.0586362366     0.0375166574   0.384930929   0.186726673
  16 11  0     -548.0409459572     0.0176902794   0.130949587   0.243556067
  17 12  0     -548.1549285300    -0.1139825729   0.023901964   0.016142818
  18 13  0     -548.1559694370    -0.0010409070   0.001940133   0.002882890
  19 14  0     -548.1559888731    -0.0000194360   0.000665874   0.000665187
  20 15  0     -548.1559899318    -0.0000010588   0.000052078   0.000039811
 DFT CODE IS SWITCHING BACK TO THE FINE GRID
          * * *   INITIATING DIIS PROCEDURE   * * *
  21 16  0     -548.1577713852    -0.0017814534   0.011848762   0.015681590
  22 17  0     -548.1579518959    -0.0001805106   0.026787062   0.007909534
  23 18  0     -548.1567203865     0.0012315093   0.020267347   0.025471690
  24 19  0     -548.1580929522    -0.0013725657   0.000721064   0.000336433
  25 20  0     -548.1580933915    -0.0000004393   0.000228166   0.000204838
  26 21  0     -548.1580934801    -0.0000000885   0.000010403   0.000023338
  27 22  0     -548.1580934813    -0.0000000013   0.000005325   0.000004161
  28 23  0     -548.1580934814     0.0000000000   0.000000414   0.000000345

          -----------------
          DENSITY CONVERGED
          -----------------
     TIME TO FORM FOCK OPERATORS=       4.2 SECONDS (       0.2 SEC/ITER)
     TIME TO SOLVE SCF EQUATIONS=       0.0 SECONDS (       0.0 SEC/ITER)

 FINAL R-PBE ENERGY IS     -548.1580934814 AFTER  28 ITERATIONS
 DFT EXCHANGE + CORRELATION ENERGY =       -42.1894206114
 TOTAL ELECTRON NUMBER             =        32.0000059228

          ------------
          EIGENVECTORS
          ------------

                      1          2          3          4          5
                  -88.2222   -18.8224   -18.8223    -7.8443    -5.8652
                     A1         A1         B1         A1         B1  
    1  S  1  S    1.002978  -0.000092   0.000000  -0.274114   0.000000
    2  S  1  S   -0.010258  -0.001308   0.000000   1.039684   0.000000
    3  S  1  S    0.001808  -0.002581   0.000000   0.040752   0.000000
    4  S  1  S   -0.001047   0.008296   0.000000  -0.013246   0.000000
    5  S  1  X    0.000000   0.000000   0.000117   0.000000   0.996857
    6  S  1  Y    0.000000   0.000000   0.000000   0.000000   0.000000
    7  S  1  Z    0.000052  -0.000120   0.000000   0.007047   0.000000
    8  S  1  X    0.000000   0.000000  -0.000716   0.000000   0.009010
    9  S  1  Y    0.000000   0.000000   0.000000   0.000000   0.000000
   10  S  1  Z    0.000018   0.000600   0.000000   0.000522   0.000000
   11  S  1  X    0.000000   0.000000  -0.003397   0.000000  -0.000183
   12  S  1  Y    0.000000   0.000000   0.000000   0.000000   0.000000
   13  S  1  Z   -0.000125   0.004246   0.000000  -0.001108   0.000000
   14  S  1 XX   -0.000008   0.000807   0.000000   0.000121   0.000000
   15  S  1 YY    0.000020  -0.001251   0.000000   0.000006   0.000000
   16  S  1 ZZ   -0.000012   0.000444   0.000000  -0.000128   0.000000
   17  S  1 XY    0.000000   0.000000   0.000000   0.000000   0.000000
   18  S  1 XZ    0.000000   0.000000  -0.001387   0.000000   0.000328
   19  S  1 YZ    0.000000   0.000000   0.000000   0.000000   0.000000
   20  O  2  S   -0.000002   0.703272   0.703222   0.000004   0.000037
   21  O  2  S   -0.000029   0.025348   0.024826  -0.000184   0.000050
   22  O  2  S    0.000155  -0.011460  -0.009790   0.001275  -0.000030
   23  O  2  X    0.000004   0.000646   0.000632  -0.000064   0.000006
   24  O  2  Y    0.000000   0.000000   0.000000   0.000000   0.000000
   25  O  2  Z   -0.000009  -0.000536  -0.000595   0.000006  -0.000005
   26  O  2  X    0.000028  -0.002626  -0.001517   0.000081  -0.000043
   27  O  2  Y    0.000000   0.000000   0.000000   0.000000   0.000000
   28  O  2  Z    0.000004   0.001643   0.001672   0.000188   0.000016
   29  O  2 XX   -0.000017  -0.000249  -0.000082  -0.000225  -0.000053
   30  O  2 YY    0.000028   0.000206   0.000194   0.000339   0.000064
   31  O  2 ZZ   -0.000011   0.000042  -0.000112  -0.000114  -0.000011
   32  O  2 XY    0.000000   0.000000   0.000000   0.000000   0.000000
   33  O  2 XZ    0.000048   0.000328   0.000269   0.000580   0.000106
   34  O  2 YZ    0.000000   0.000000   0.000000   0.000000   0.000000
   35  O  3  S   -0.000002   0.703272  -0.703222   0.000004  -0.000037
   36  O  3  S   -0.000029   0.025348  -0.024826  -0.000184  -0.000050
   37  O  3  S    0.000155  -0.011460   0.009790   0.001275   0.000030
   38  O  3  X   -0.000004  -0.000646   0.000632   0.000064   0.000006
   39  O  3  Y    0.000000   0.000000   0.000000   0.000000   0.000000
   40  O  3  Z   -0.000009  -0.000536   0.000595   0.000006   0.000005
   41  O  3  X   -0.000028   0.002626  -0.001517  -0.000081  -0.000043
   42  O  3  Y    0.000000   0.000000   0.000000   0.000000   0.000000
   43  O  3  Z    0.000004   0.001643  -0.001672   0.000188  -0.000016
   44  O  3 XX   -0.000017  -0.000249   0.000082  -0.000225   0.000053
   45  O  3 YY    0.000028   0.000206  -0.000194   0.000339  -0.000064
   46  O  3 ZZ   -0.000011   0.000042   0.000112  -0.000114   0.000011
   47  O  3 XY    0.000000   0.000000   0.000000   0.000000   0.000000
   48  O  3 XZ   -0.000048  -0.000328   0.000269  -0.000580   0.000106
   49  O  3 YZ    0.000000   0.000000   0.000000   0.000000   0.000000

                      6          7          8          9         10
                   -5.8628    -5.8615    -0.9230    -0.8691    -0.6580
                     B2         A1         A1         B1         A1  
    1  S  1  S    0.000000   0.001882   0.041598   0.000000   0.075624
    2  S  1  S    0.000000  -0.007432  -0.120978   0.000000  -0.216505
    3  S  1  S    0.000000  -0.000570   0.246535   0.000000   0.470770
    4  S  1  S    0.000000   0.000099   0.180527   0.000000   0.452287
    5  S  1  X    0.000000   0.000000   0.000000   0.065872   0.000000
    6  S  1  Y    0.996905   0.000000   0.000000   0.000000   0.000000
    7  S  1  Z    0.000000   0.996898  -0.044504   0.000000   0.030777
    8  S  1  X    0.000000   0.000000   0.000000  -0.134426   0.000000
    9  S  1  Y    0.008897   0.000000   0.000000   0.000000   0.000000
   10  S  1  Z    0.000000   0.008804   0.090151   0.000000  -0.063251
   11  S  1  X    0.000000   0.000000   0.000000  -0.031885   0.000000
   12  S  1  Y   -0.000191   0.000000   0.000000   0.000000   0.000000
   13  S  1  Z    0.000000  -0.000177   0.011660   0.000000  -0.047763
   14  S  1 XX    0.000000  -0.000164   0.016812   0.000000  -0.004605
   15  S  1 YY    0.000000  -0.000150  -0.021041   0.000000   0.008951
   16  S  1 ZZ    0.000000   0.000314   0.004229   0.000000  -0.004346
   17  S  1 XY    0.000000   0.000000   0.000000   0.000000   0.000000
   18  S  1 XZ    0.000000   0.000000   0.000000  -0.043570   0.000000
   19  S  1 YZ    0.000257   0.000000   0.000000   0.000000   0.000000
   20  O  2  S    0.000000  -0.000036  -0.131610  -0.155284   0.090953
   21  O  2  S    0.000000  -0.000085   0.262755   0.315560  -0.189593
   22  O  2  S    0.000000   0.000113   0.328296   0.399756  -0.277518
   23  O  2  X    0.000000   0.000002   0.060644   0.043847   0.061398
   24  O  2  Y    0.000002   0.000000   0.000000   0.000000   0.000000
   25  O  2  Z    0.000000   0.000009  -0.049179  -0.045442  -0.057707
   26  O  2  X    0.000000   0.000056   0.031132   0.023152   0.026832
   27  O  2  Y   -0.000042   0.000000   0.000000   0.000000   0.000000
   28  O  2  Z    0.000000  -0.000124  -0.026458  -0.025343  -0.024559
   29  O  2 XX    0.000000   0.000035   0.003996   0.000922   0.002155
   30  O  2 YY    0.000000  -0.000076  -0.004210  -0.001799  -0.004115
   31  O  2 ZZ    0.000000   0.000041   0.000215   0.000877   0.001961
   32  O  2 XY   -0.000018   0.000000   0.000000   0.000000   0.000000
   33  O  2 XZ    0.000000  -0.000138  -0.010997  -0.008946  -0.004483
   34  O  2 YZ    0.000013   0.000000   0.000000   0.000000   0.000000
   35  O  3  S    0.000000  -0.000036  -0.131610   0.155284   0.090953
   36  O  3  S    0.000000  -0.000085   0.262755  -0.315560  -0.189593
   37  O  3  S    0.000000   0.000113   0.328296  -0.399756  -0.277518
   38  O  3  X    0.000000  -0.000002  -0.060644   0.043847  -0.061398
   39  O  3  Y    0.000002   0.000000   0.000000   0.000000   0.000000
   40  O  3  Z    0.000000   0.000009  -0.049179   0.045442  -0.057707
   41  O  3  X    0.000000  -0.000056  -0.031132   0.023152  -0.026832
   42  O  3  Y   -0.000042   0.000000   0.000000   0.000000   0.000000
   43  O  3  Z    0.000000  -0.000124  -0.026458   0.025343  -0.024559
   44  O  3 XX    0.000000   0.000035   0.003996  -0.000922   0.002155
   45  O  3 YY    0.000000  -0.000076  -0.004210   0.001799  -0.004115
   46  O  3 ZZ    0.000000   0.000041   0.000215  -0.000877   0.001961
   47  O  3 XY    0.000018   0.000000   0.000000   0.000000   0.000000
   48  O  3 XZ    0.000000   0.000138   0.010997  -0.008946   0.004483
   49  O  3 YZ    0.000013   0.000000   0.000000   0.000000   0.000000

                     11         12         13         14         15
                   -0.4164    -0.3989    -0.3810    -0.2942    -0.2880
                     B1         A1         B2         A2         A1  
    1  S  1  S    0.000000  -0.009872   0.000000   0.000000   0.010702
    2  S  1  S    0.000000   0.049483   0.000000   0.000000  -0.042323
    3  S  1  S    0.000000  -0.034707   0.000000   0.000000   0.054504
    4  S  1  S    0.000000  -0.223546   0.000000   0.000000   0.189293
    5  S  1  X   -0.190659   0.000000   0.000000   0.000000   0.000000
    6  S  1  Y    0.000000   0.000000  -0.216755   0.000000   0.000000
    7  S  1  Z    0.000000  -0.210413   0.000000   0.000000   0.042840
    8  S  1  X    0.449876   0.000000   0.000000   0.000000   0.000000
    9  S  1  Y    0.000000   0.000000   0.511836   0.000000   0.000000
   10  S  1  Z    0.000000   0.496230   0.000000   0.000000  -0.105413
   11  S  1  X    0.187673   0.000000   0.000000   0.000000   0.000000
   12  S  1  Y    0.000000   0.000000   0.340162   0.000000   0.000000
   13  S  1  Z    0.000000   0.246990   0.000000   0.000000  -0.016271
   14  S  1 XX    0.000000  -0.003952   0.000000   0.000000  -0.086733
   15  S  1 YY    0.000000  -0.020515   0.000000   0.000000   0.025712
   16  S  1 ZZ    0.000000   0.024467   0.000000   0.000000   0.061020
   17  S  1 XY    0.000000   0.000000   0.000000  -0.067284   0.000000
   18  S  1 XZ    0.040872   0.000000   0.000000   0.000000   0.000000
   19  S  1 YZ    0.000000   0.000000   0.028917   0.000000   0.000000
   20  O  2  S   -0.049054   0.033146   0.000000   0.000000  -0.001473
   21  O  2  S    0.101414  -0.069378   0.000000   0.000000   0.005692
   22  O  2  S    0.185421  -0.123506   0.000000   0.000000  -0.012603
   23  O  2  X   -0.207348   0.296583   0.000000   0.000000   0.132341
   24  O  2  Y    0.000000   0.000000   0.272267   0.478133   0.000000
   25  O  2  Z    0.272269  -0.064752   0.000000   0.000000   0.443047
   26  O  2  X   -0.127226   0.189365   0.000000   0.000000   0.094840
   27  O  2  Y    0.000000   0.000000   0.169947   0.337594   0.000000
   28  O  2  Z    0.164250  -0.043755   0.000000   0.000000   0.325845
   29  O  2 XX   -0.000230   0.012349   0.000000   0.000000   0.008620
   30  O  2 YY    0.007324  -0.006366   0.000000   0.000000   0.002933
   31  O  2 ZZ   -0.007095  -0.005983   0.000000   0.000000  -0.011553
   32  O  2 XY    0.000000   0.000000   0.011035   0.008959   0.000000
   33  O  2 XZ    0.011479  -0.007825   0.000000   0.000000   0.006905
   34  O  2 YZ    0.000000   0.000000  -0.009326  -0.009394   0.000000
   35  O  3  S    0.049054   0.033146   0.000000   0.000000  -0.001473
   36  O  3  S   -0.101414  -0.069378   0.000000   0.000000   0.005692
   37  O  3  S   -0.185421  -0.123506   0.000000   0.000000  -0.012603
   38  O  3  X   -0.207348  -0.296583   0.000000   0.000000  -0.132341
   39  O  3  Y    0.000000   0.000000   0.272267  -0.478133   0.000000
   40  O  3  Z   -0.272269  -0.064752   0.000000   0.000000   0.443047
   41  O  3  X   -0.127226  -0.189365   0.000000   0.000000  -0.094840
   42  O  3  Y    0.000000   0.000000   0.169947  -0.337594   0.000000
   43  O  3  Z   -0.164250  -0.043755   0.000000   0.000000   0.325845
   44  O  3 XX    0.000230   0.012349   0.000000   0.000000   0.008620
   45  O  3 YY   -0.007324  -0.006366   0.000000   0.000000   0.002933
   46  O  3 ZZ    0.007095  -0.005983   0.000000   0.000000  -0.011553
   47  O  3 XY    0.000000   0.000000  -0.011035   0.008959   0.000000
   48  O  3 XZ    0.011479   0.007825   0.000000   0.000000  -0.006905
   49  O  3 YZ    0.000000   0.000000  -0.009326   0.009394   0.000000

                     16         17         18         19         20
                   -0.2681    -0.2336    -0.1247    -0.1028     0.3334
                     B1         B2         B1         A1         B1  
    1  S  1  S    0.000000   0.000000   0.000000   0.030609   0.000000
    2  S  1  S    0.000000   0.000000   0.000000  -0.082515   0.000000
    3  S  1  S    0.000000   0.000000   0.000000   0.213206   0.000000
    4  S  1  S    0.000000   0.000000   0.000000   0.401243   0.000000
    5  S  1  X   -0.017043   0.000000  -0.212883   0.000000   0.280850
    6  S  1  Y    0.000000  -0.191511   0.000000   0.000000   0.000000
    7  S  1  Z    0.000000   0.000000   0.000000  -0.192772   0.000000
    8  S  1  X    0.033528   0.000000   0.535689   0.000000  -1.080425
    9  S  1  Y    0.000000   0.475816   0.000000   0.000000   0.000000
   10  S  1  Z    0.000000   0.000000   0.000000   0.490496   0.000000
   11  S  1  X    0.133900   0.000000   0.644687   0.000000   1.400108
   12  S  1  Y    0.000000   0.351612   0.000000   0.000000   0.000000
   13  S  1  Z    0.000000   0.000000   0.000000   0.600221   0.000000
   14  S  1 XX    0.000000   0.000000   0.000000  -0.054310   0.000000
   15  S  1 YY    0.000000   0.000000   0.000000   0.112581   0.000000
   16  S  1 ZZ    0.000000   0.000000   0.000000  -0.058271   0.000000
   17  S  1 XY    0.000000   0.000000   0.000000   0.000000   0.000000
   18  S  1 XZ   -0.059813   0.000000  -0.144471   0.000000  -0.122952
   19  S  1 YZ    0.000000  -0.051220   0.000000   0.000000   0.000000
   20  O  2  S   -0.003802   0.000000  -0.030639   0.036688  -0.009791
   21  O  2  S    0.005504   0.000000   0.052434  -0.065453  -0.033379
   22  O  2  S    0.043419   0.000000   0.249118  -0.272343   0.378293
   23  O  2  X    0.417582   0.000000   0.117553  -0.360996  -0.199150
   24  O  2  Y    0.000000  -0.400677   0.000000   0.000000   0.000000
   25  O  2  Z    0.246158   0.000000  -0.335528   0.138760   0.065063
   26  O  2  X    0.293540   0.000000   0.118333  -0.339557   0.073877
   27  O  2  Y    0.000000  -0.302627   0.000000   0.000000   0.000000
   28  O  2  Z    0.157857   0.000000  -0.290303   0.121974  -0.159132
   29  O  2 XX    0.009959   0.000000   0.002663   0.002550   0.012932
   30  O  2 YY   -0.000897   0.000000   0.000511   0.001240  -0.019454
   31  O  2 ZZ   -0.009062   0.000000  -0.003174  -0.003790   0.006522
   32  O  2 XY    0.000000  -0.002298   0.000000   0.000000   0.000000
   33  O  2 XZ   -0.003559   0.000000  -0.000688  -0.000371  -0.036198
   34  O  2 YZ    0.000000   0.001536   0.000000   0.000000   0.000000
   35  O  3  S    0.003802   0.000000   0.030639   0.036688   0.009791
   36  O  3  S   -0.005504   0.000000  -0.052434  -0.065453   0.033379
   37  O  3  S   -0.043419   0.000000  -0.249118  -0.272343  -0.378293
   38  O  3  X    0.417582   0.000000   0.117553   0.360996  -0.199150
   39  O  3  Y    0.000000  -0.400677   0.000000   0.000000   0.000000
   40  O  3  Z   -0.246158   0.000000   0.335528   0.138760  -0.065063
   41  O  3  X    0.293540   0.000000   0.118333   0.339557   0.073877
   42  O  3  Y    0.000000  -0.302627   0.000000   0.000000   0.000000
   43  O  3  Z   -0.157857   0.000000   0.290303   0.121974   0.159132
   44  O  3 XX   -0.009959   0.000000  -0.002663   0.002550  -0.012932
   45  O  3 YY    0.000897   0.000000  -0.000511   0.001240   0.019454
   46  O  3 ZZ    0.009062   0.000000   0.003174  -0.003790  -0.006522
   47  O  3 XY    0.000000   0.002298   0.000000   0.000000   0.000000
   48  O  3 XZ   -0.003559   0.000000  -0.000688   0.000371  -0.036198
   49  O  3 YZ    0.000000   0.001536   0.000000   0.000000   0.000000

                     21         22         23         24         25
                    0.3380     0.3631     0.4064     0.4718     0.4736
                     A1         B2         A1         A1         A2  
    1  S  1  S    0.004255   0.000000  -0.104098   0.009561   0.000000
    2  S  1  S   -0.052432   0.000000  -0.388410   0.033086   0.000000
    3  S  1  S   -0.019000   0.000000  -1.624632   0.146152   0.000000
    4  S  1  S    0.341372   0.000000   1.996549  -0.168590   0.000000
    5  S  1  X    0.000000   0.000000   0.000000   0.000000   0.000000
    6  S  1  Y    0.000000   0.293684   0.000000   0.000000   0.000000
    7  S  1  Z    0.275396   0.000000  -0.034152   0.059195   0.000000
    8  S  1  X    0.000000   0.000000   0.000000   0.000000   0.000000
    9  S  1  Y    0.000000  -1.134755   0.000000   0.000000   0.000000
   10  S  1  Z   -1.064572   0.000000   0.114329  -0.224036   0.000000
   11  S  1  X    0.000000   0.000000   0.000000   0.000000   0.000000
   12  S  1  Y    0.000000   1.222663   0.000000   0.000000   0.000000
   13  S  1  Z    1.411140   0.000000   0.165776   0.162257   0.000000
   14  S  1 XX    0.068368   0.000000  -0.311455  -0.620330   0.000000
   15  S  1 YY    0.147961   0.000000   0.420412  -0.146634   0.000000
   16  S  1 ZZ   -0.216330   0.000000  -0.108957   0.766964   0.000000
   17  S  1 XY    0.000000   0.000000   0.000000   0.000000   0.899758
   18  S  1 XZ    0.000000   0.000000   0.000000   0.000000   0.000000
   19  S  1 YZ    0.000000  -0.185655   0.000000   0.000000   0.000000
   20  O  2  S    0.014309   0.000000   0.018889  -0.002468   0.000000
   21  O  2  S    0.025983   0.000000  -0.043724   0.006949   0.000000
   22  O  2  S   -0.383024   0.000000  -0.250509  -0.005078   0.000000
   23  O  2  X    0.121731   0.000000   0.031627  -0.208193   0.000000
   24  O  2  Y    0.000000  -0.060051   0.000000   0.000000   0.277592
   25  O  2  Z   -0.099723   0.000000  -0.091177  -0.289938   0.000000
   26  O  2  X   -0.240764   0.000000  -0.159901   0.135868   0.000000
   27  O  2  Y    0.000000  -0.103863   0.000000   0.000000  -0.163028
   28  O  2  Z    0.037063   0.000000   0.139030   0.136544   0.000000
   29  O  2 XX   -0.026577   0.000000  -0.011431   0.044736   0.000000
   30  O  2 YY    0.019835   0.000000   0.027942  -0.000944   0.000000
   31  O  2 ZZ    0.006743   0.000000  -0.016511  -0.043792   0.000000
   32  O  2 XY    0.000000  -0.012008   0.000000   0.000000  -0.029648
   33  O  2 XZ    0.022319   0.000000   0.036443   0.016163   0.000000
   34  O  2 YZ    0.000000   0.007103   0.000000   0.000000   0.037112
   35  O  3  S    0.014309   0.000000   0.018889  -0.002468   0.000000
   36  O  3  S    0.025983   0.000000  -0.043724   0.006949   0.000000
   37  O  3  S   -0.383024   0.000000  -0.250509  -0.005078   0.000000
   38  O  3  X   -0.121731   0.000000  -0.031627   0.208193   0.000000
   39  O  3  Y    0.000000  -0.060051   0.000000   0.000000  -0.277592
   40  O  3  Z   -0.099723   0.000000  -0.091177  -0.289938   0.000000
   41  O  3  X    0.240764   0.000000   0.159901  -0.135868   0.000000
   42  O  3  Y    0.000000  -0.103863   0.000000   0.000000   0.163028
   43  O  3  Z    0.037063   0.000000   0.139030   0.136544   0.000000
   44  O  3 XX   -0.026577   0.000000  -0.011431   0.044736   0.000000
   45  O  3 YY    0.019835   0.000000   0.027942  -0.000944   0.000000
   46  O  3 ZZ    0.006743   0.000000  -0.016511  -0.043792   0.000000
   47  O  3 XY    0.000000   0.012008   0.000000   0.000000  -0.029648
   48  O  3 XZ   -0.022319   0.000000  -0.036443  -0.016163   0.000000
   49  O  3 YZ    0.000000   0.007103   0.000000   0.000000  -0.037112

                     26         27         28         29         30
                    0.4832     0.6358     0.6749     0.7792     0.8080
                     B2         A1         B1         A1         A2  
    1  S  1  S    0.000000  -0.051038   0.000000  -0.013292   0.000000
    2  S  1  S    0.000000  -0.273321   0.000000  -0.005671   0.000000
    3  S  1  S    0.000000  -0.903176   0.000000  -0.161269   0.000000
    4  S  1  S    0.000000   1.508938   0.000000  -0.242123   0.000000
    5  S  1  X    0.000000   0.000000   0.007388   0.000000   0.000000
    6  S  1  Y    0.050830   0.000000   0.000000   0.000000   0.000000
    7  S  1  Z    0.000000   0.002455   0.000000   0.032882   0.000000
    8  S  1  X    0.000000   0.000000  -0.049029   0.000000   0.000000
    9  S  1  Y   -0.193156   0.000000   0.000000   0.000000   0.000000
   10  S  1  Z    0.000000  -0.041005   0.000000  -0.157903   0.000000
   11  S  1  X    0.000000   0.000000   0.584512   0.000000   0.000000
   12  S  1  Y    0.143322   0.000000   0.000000   0.000000   0.000000
   13  S  1  Z    0.000000   0.572449   0.000000  -0.296457   0.000000
   14  S  1 XX    0.000000   0.582149   0.000000   0.388525   0.000000
   15  S  1 YY    0.000000  -0.870645   0.000000   0.028381   0.000000
   16  S  1 ZZ    0.000000   0.288496   0.000000  -0.416905   0.000000
   17  S  1 XY    0.000000   0.000000   0.000000   0.000000   0.450243
   18  S  1 XZ    0.000000   0.000000   0.989463   0.000000   0.000000
   19  S  1 YZ    0.894664   0.000000   0.000000   0.000000   0.000000
   20  O  2  S    0.000000   0.055273  -0.054416  -0.012788   0.000000
   21  O  2  S    0.000000  -0.279314   0.284943   0.067596   0.000000
   22  O  2  S    0.000000  -0.219436   0.113114   0.063499   0.000000
   23  O  2  X    0.000000   0.005542  -0.040792  -0.557690   0.000000
   24  O  2  Y   -0.270333   0.000000   0.000000   0.000000  -0.585211
   25  O  2  Z    0.000000  -0.036301  -0.017166  -0.110353   0.000000
   26  O  2  X    0.000000  -0.373459   0.370605   0.778026   0.000000
   27  O  2  Y    0.156448   0.000000   0.000000   0.000000   0.746448
   28  O  2  Z    0.000000   0.292168  -0.292971   0.113565   0.000000
   29  O  2 XX    0.000000  -0.002821  -0.023948  -0.038971   0.000000
   30  O  2 YY    0.000000  -0.008994   0.018333   0.002500   0.000000
   31  O  2 ZZ    0.000000   0.011815   0.005615   0.036471   0.000000
   32  O  2 XY    0.036214   0.000000   0.000000   0.000000  -0.028975
   33  O  2 XZ    0.000000   0.004649   0.038461   0.014144   0.000000
   34  O  2 YZ   -0.015960   0.000000   0.000000   0.000000   0.026704
   35  O  3  S    0.000000   0.055273   0.054416  -0.012788   0.000000
   36  O  3  S    0.000000  -0.279314  -0.284943   0.067596   0.000000
   37  O  3  S    0.000000  -0.219436  -0.113114   0.063499   0.000000
   38  O  3  X    0.000000  -0.005542  -0.040792   0.557690   0.000000
   39  O  3  Y   -0.270333   0.000000   0.000000   0.000000   0.585211
   40  O  3  Z    0.000000  -0.036301   0.017166  -0.110353   0.000000
   41  O  3  X    0.000000   0.373459   0.370605  -0.778026   0.000000
   42  O  3  Y    0.156448   0.000000   0.000000   0.000000  -0.746448
   43  O  3  Z    0.000000   0.292168   0.292971   0.113565   0.000000
   44  O  3 XX    0.000000  -0.002821   0.023948  -0.038971   0.000000
   45  O  3 YY    0.000000  -0.008994  -0.018333   0.002500   0.000000
   46  O  3 ZZ    0.000000   0.011815  -0.005615   0.036471   0.000000
   47  O  3 XY   -0.036214   0.000000   0.000000   0.000000  -0.028975
   48  O  3 XZ    0.000000  -0.004649   0.038461  -0.014144   0.000000
   49  O  3 YZ   -0.015960   0.000000   0.000000   0.000000  -0.026704

                     31         32         33         34         35
                    0.8203     0.8272     0.8373     0.8950     1.5096
                     B1         B2         A1         B1         B1  
    1  S  1  S    0.000000   0.000000   0.028335   0.000000   0.000000
    2  S  1  S    0.000000   0.000000   0.084284   0.000000   0.000000
    3  S  1  S    0.000000   0.000000   0.429704   0.000000   0.000000
    4  S  1  S    0.000000   0.000000  -0.060074   0.000000   0.000000
    5  S  1  X    0.063799   0.000000   0.000000  -0.065174  -0.024679
    6  S  1  Y    0.000000  -0.029353   0.000000   0.000000   0.000000
    7  S  1  Z    0.000000   0.000000  -0.073585   0.000000   0.000000
    8  S  1  X   -0.324821   0.000000   0.000000   0.359763   0.106274
    9  S  1  Y    0.000000   0.155136   0.000000   0.000000   0.000000
   10  S  1  Z    0.000000   0.000000   0.391640   0.000000   0.000000
   11  S  1  X   -0.117822   0.000000   0.000000  -0.539392   0.769059
   12  S  1  Y    0.000000  -0.527116   0.000000   0.000000   0.000000
   13  S  1  Z    0.000000   0.000000  -0.371258   0.000000   0.000000
   14  S  1 XX    0.000000   0.000000   0.197944   0.000000   0.000000
   15  S  1 YY    0.000000   0.000000   0.132632   0.000000   0.000000
   16  S  1 ZZ    0.000000   0.000000  -0.330576   0.000000   0.000000
   17  S  1 XY    0.000000   0.000000   0.000000   0.000000   0.000000
   18  S  1 XZ    0.142497   0.000000   0.000000  -0.163513   0.413743
   19  S  1 YZ    0.000000  -0.419672   0.000000   0.000000   0.000000
   20  O  2  S    0.013415   0.000000   0.005252   0.001030   0.017594
   21  O  2  S   -0.126750   0.000000  -0.061490   0.079290  -1.115143
   22  O  2  S    0.052453   0.000000   0.112255  -0.216362   1.457633
   23  O  2  X    0.144400   0.000000   0.173070  -0.607107  -0.092033
   24  O  2  Y    0.000000  -0.582931   0.000000   0.000000   0.000000
   25  O  2  Z   -0.611478   0.000000  -0.555245  -0.164436   0.084471
   26  O  2  X   -0.210029   0.000000  -0.193679   0.761006   0.353832
   27  O  2  Y    0.000000   0.817641   0.000000   0.000000   0.000000
   28  O  2  Z    0.789317   0.000000   0.756343   0.296366  -0.387378
   29  O  2 XX   -0.001938   0.000000  -0.012276  -0.034429  -0.059956
   30  O  2 YY   -0.010549   0.000000  -0.022881   0.021963   0.110724
   31  O  2 ZZ    0.012487   0.000000   0.035157   0.012466  -0.050767
   32  O  2 XY    0.000000  -0.034592   0.000000   0.000000   0.000000
   33  O  2 XZ   -0.018122   0.000000  -0.048142   0.004338   0.164393
   34  O  2 YZ    0.000000   0.025634   0.000000   0.000000   0.000000
   35  O  3  S   -0.013415   0.000000   0.005252  -0.001030  -0.017594
   36  O  3  S    0.126750   0.000000  -0.061490  -0.079290   1.115143
   37  O  3  S   -0.052453   0.000000   0.112255   0.216362  -1.457633
   38  O  3  X    0.144400   0.000000  -0.173070  -0.607107  -0.092033
   39  O  3  Y    0.000000  -0.582931   0.000000   0.000000   0.000000
   40  O  3  Z    0.611478   0.000000  -0.555245   0.164436  -0.084471
   41  O  3  X   -0.210029   0.000000   0.193679   0.761006   0.353832
   42  O  3  Y    0.000000   0.817641   0.000000   0.000000   0.000000
   43  O  3  Z   -0.789317   0.000000   0.756343  -0.296366   0.387378
   44  O  3 XX    0.001938   0.000000  -0.012276   0.034429   0.059956
   45  O  3 YY    0.010549   0.000000  -0.022881  -0.021963  -0.110724
   46  O  3 ZZ   -0.012487   0.000000   0.035157  -0.012466   0.050767
   47  O  3 XY    0.000000   0.034592   0.000000   0.000000   0.000000
   48  O  3 XZ   -0.018122   0.000000   0.048142   0.004338   0.164393
   49  O  3 YZ    0.000000   0.025634   0.000000   0.000000   0.000000

                     36         37         38         39         40
                    1.6343     2.0942     2.0971     2.0977     2.1013
                     A1         B1         A2         B2         A1  
    1  S  1  S   -0.033887   0.000000   0.000000   0.000000   0.000828
    2  S  1  S   -0.319862   0.000000   0.000000   0.000000   0.003893
    3  S  1  S   -0.767578   0.000000   0.000000   0.000000   0.013689
    4  S  1  S    1.865462   0.000000   0.000000   0.000000  -0.027595
    5  S  1  X    0.000000  -0.006354   0.000000   0.000000   0.000000
    6  S  1  Y    0.000000   0.000000   0.000000  -0.002926   0.000000
    7  S  1  Z   -0.016393   0.000000   0.000000   0.000000  -0.002128
    8  S  1  X    0.000000  -0.003410   0.000000   0.000000   0.000000
    9  S  1  Y    0.000000   0.000000   0.000000   0.001649   0.000000
   10  S  1  Z    0.049505   0.000000   0.000000   0.000000   0.007316
   11  S  1  X    0.000000   0.166522   0.000000   0.000000   0.000000
   12  S  1  Y    0.000000   0.000000   0.000000   0.037163   0.000000
   13  S  1  Z    0.907258   0.000000   0.000000   0.000000  -0.021930
   14  S  1 XX    0.235191   0.000000   0.000000   0.000000   0.017607
   15  S  1 YY   -0.348758   0.000000   0.000000   0.000000  -0.036671
   16  S  1 ZZ    0.113567   0.000000   0.000000   0.000000   0.019063
   17  S  1 XY    0.000000   0.000000   0.048245   0.000000   0.000000
   18  S  1 XZ    0.000000  -0.015125   0.000000   0.000000   0.000000
   19  S  1 YZ    0.000000   0.000000   0.000000   0.012003   0.000000
   20  O  2  S   -0.005929  -0.000931   0.000000   0.000000   0.000987
   21  O  2  S    1.147977  -0.061169   0.000000   0.000000  -0.016861
   22  O  2  S   -1.719206   0.115976   0.000000   0.000000   0.020830
   23  O  2  X    0.067044   0.026900   0.000000   0.000000  -0.012463
   24  O  2  Y    0.000000   0.000000  -0.012931   0.012995   0.000000
   25  O  2  Z   -0.043924   0.030641   0.000000   0.000000  -0.002233
   26  O  2  X   -0.535185  -0.021658   0.000000   0.000000   0.020954
   27  O  2  Y    0.000000   0.000000   0.019234  -0.022848   0.000000
   28  O  2  Z    0.316741  -0.069086   0.000000   0.000000   0.004133
   29  O  2 XX    0.123958  -0.480133   0.000000   0.000000  -0.272913
   30  O  2 YY   -0.094575  -0.210780   0.000000   0.000000   0.622569
   31  O  2 ZZ   -0.029382   0.690913   0.000000   0.000000  -0.349656
   32  O  2 XY    0.000000   0.000000   0.618378   0.316666   0.000000
   33  O  2 XZ   -0.178070   0.032669   0.000000   0.000000  -0.332225
   34  O  2 YZ    0.000000   0.000000   0.343283   0.632502   0.000000
   35  O  3  S   -0.005929   0.000931   0.000000   0.000000   0.000987
   36  O  3  S    1.147977   0.061169   0.000000   0.000000  -0.016861
   37  O  3  S   -1.719206  -0.115976   0.000000   0.000000   0.020830
   38  O  3  X   -0.067044   0.026900   0.000000   0.000000   0.012463
   39  O  3  Y    0.000000   0.000000   0.012931   0.012995   0.000000
   40  O  3  Z   -0.043924  -0.030641   0.000000   0.000000  -0.002233
   41  O  3  X    0.535185  -0.021658   0.000000   0.000000  -0.020954
   42  O  3  Y    0.000000   0.000000  -0.019234  -0.022848   0.000000
   43  O  3  Z    0.316741   0.069086   0.000000   0.000000   0.004133
   44  O  3 XX    0.123958   0.480133   0.000000   0.000000  -0.272913
   45  O  3 YY   -0.094575   0.210780   0.000000   0.000000   0.622569
   46  O  3 ZZ   -0.029382  -0.690913   0.000000   0.000000  -0.349656
   47  O  3 XY    0.000000   0.000000   0.618378  -0.316666   0.000000
   48  O  3 XZ    0.178070   0.032669   0.000000   0.000000   0.332225
   49  O  3 YZ    0.000000   0.000000  -0.343283   0.632502   0.000000

                     41         42         43         44         45
                    2.1023     2.1172     2.1370     2.1949     2.3868
                     B1         A2         B2         A1         A1  
    1  S  1  S    0.000000   0.000000   0.000000  -0.006766   0.003799
    2  S  1  S    0.000000   0.000000   0.000000  -0.032999  -0.179000
    3  S  1  S    0.000000   0.000000   0.000000  -0.115852  -0.181338
    4  S  1  S    0.000000   0.000000   0.000000   0.172802   1.059342
    5  S  1  X    0.002934   0.000000   0.000000   0.000000   0.000000
    6  S  1  Y    0.000000   0.000000   0.012352   0.000000   0.000000
    7  S  1  Z    0.000000   0.000000   0.000000   0.001931  -0.096652
    8  S  1  X   -0.025626   0.000000   0.000000   0.000000   0.000000
    9  S  1  Y    0.000000   0.000000  -0.007278   0.000000   0.000000
   10  S  1  Z    0.000000   0.000000   0.000000  -0.043786   0.349936
   11  S  1  X    0.054083   0.000000   0.000000   0.000000   0.000000
   12  S  1  Y    0.000000   0.000000  -0.153720   0.000000   0.000000
   13  S  1  Z    0.000000   0.000000   0.000000   0.222394   0.425551
   14  S  1 XX    0.000000   0.000000   0.000000  -0.229798   0.239985
   15  S  1 YY    0.000000   0.000000   0.000000  -0.008910  -0.377376
   16  S  1 ZZ    0.000000   0.000000   0.000000   0.238708   0.137391
   17  S  1 XY    0.000000  -0.198762   0.000000   0.000000   0.000000
   18  S  1 XZ   -0.009068   0.000000   0.000000   0.000000   0.000000
   19  S  1 YZ    0.000000   0.000000  -0.186554   0.000000   0.000000
   20  O  2  S   -0.000120   0.000000   0.000000   0.001639   0.009280
   21  O  2  S    0.012950   0.000000   0.000000   0.060425   0.540064
   22  O  2  S   -0.004204   0.000000   0.000000  -0.137059  -0.902577
   23  O  2  X    0.032736   0.000000   0.000000   0.010788   0.084488
   24  O  2  Y    0.000000   0.027823  -0.043090   0.000000   0.000000
   25  O  2  Z    0.011667   0.000000   0.000000   0.034689  -0.063071
   26  O  2  X   -0.051974   0.000000   0.000000  -0.070978  -0.426083
   27  O  2  Y    0.000000  -0.044234   0.090820   0.000000   0.000000
   28  O  2  Z   -0.021436   0.000000   0.000000  -0.056066   0.294387
   29  O  2 XX   -0.463750   0.000000   0.000000  -0.554915  -0.345071
   30  O  2 YY    0.581112   0.000000   0.000000  -0.064657   0.332886
   31  O  2 ZZ   -0.117362   0.000000   0.000000   0.619572   0.012185
   32  O  2 XY    0.000000  -0.345012   0.635824   0.000000   0.000000
   33  O  2 XZ   -0.349895   0.000000   0.000000  -0.211801   0.587587
   34  O  2 YZ    0.000000   0.619219  -0.320882   0.000000   0.000000
   35  O  3  S    0.000120   0.000000   0.000000   0.001639   0.009280
   36  O  3  S   -0.012950   0.000000   0.000000   0.060425   0.540064
   37  O  3  S    0.004204   0.000000   0.000000  -0.137059  -0.902577
   38  O  3  X    0.032736   0.000000   0.000000  -0.010788  -0.084488
   39  O  3  Y    0.000000  -0.027823  -0.043090   0.000000   0.000000
   40  O  3  Z   -0.011667   0.000000   0.000000   0.034689  -0.063071
   41  O  3  X   -0.051974   0.000000   0.000000   0.070978   0.426083
   42  O  3  Y    0.000000   0.044234   0.090820   0.000000   0.000000
   43  O  3  Z    0.021436   0.000000   0.000000  -0.056066   0.294387
   44  O  3 XX    0.463750   0.000000   0.000000  -0.554915  -0.345071
   45  O  3 YY   -0.581112   0.000000   0.000000  -0.064657   0.332886
   46  O  3 ZZ    0.117362   0.000000   0.000000   0.619572   0.012185
   47  O  3 XY    0.000000  -0.345012  -0.635824   0.000000   0.000000
   48  O  3 XZ   -0.349895   0.000000   0.000000   0.211801  -0.587587
   49  O  3 YZ    0.000000  -0.619219  -0.320882   0.000000   0.000000

                     46
                    2.4762
                     B1  
    1  S  1  S    0.000000
    2  S  1  S    0.000000
    3  S  1  S    0.000000
    4  S  1  S    0.000000
    5  S  1  X   -0.113806
    6  S  1  Y    0.000000
    7  S  1  Z    0.000000
    8  S  1  X    0.423844
    9  S  1  Y    0.000000
   10  S  1  Z    0.000000
   11  S  1  X    0.331153
   12  S  1  Y    0.000000
   13  S  1  Z    0.000000
   14  S  1 XX    0.000000
   15  S  1 YY    0.000000
   16  S  1 ZZ    0.000000
   17  S  1 XY    0.000000
   18  S  1 XZ    0.563593
   19  S  1 YZ    0.000000
   20  O  2  S   -0.009556
   21  O  2  S   -0.440740
   22  O  2  S    0.695643
   23  O  2  X   -0.067618
   24  O  2  Y    0.000000
   25  O  2  Z    0.059708
   26  O  2  X    0.326355
   27  O  2  Y    0.000000
   28  O  2  Z   -0.308707
   29  O  2 XX    0.246530
   30  O  2 YY   -0.348534
   31  O  2 ZZ    0.102004
   32  O  2 XY    0.000000
   33  O  2 XZ   -0.631340
   34  O  2 YZ    0.000000
   35  O  3  S    0.009556
   36  O  3  S    0.440740
   37  O  3  S   -0.695643
   38  O  3  X   -0.067618
   39  O  3  Y    0.000000
   40  O  3  Z   -0.059708
   41  O  3  X    0.326355
   42  O  3  Y    0.000000
   43  O  3  Z    0.308707
   44  O  3 XX   -0.246530
   45  O  3 YY    0.348534
   46  O  3 ZZ   -0.102004
   47  O  3 XY    0.000000
   48  O  3 XZ   -0.631340
   49  O  3 YZ    0.000000
 ...... END OF RHF CALCULATION ......
 STEP CPU TIME =     4.27 TOTAL CPU TIME =        4.4 (    0.1 MIN)
 TOTAL WALL CLOCK TIME=        4.4 SECONDS, CPU UTILIZATION IS 100.00%

     ---------------------------------------------------------------------
     PROPERTIES FOR THE PBE      DFT FUNCTIONAL (RHF  TYPE) DENSITY MATRIX
     ---------------------------------------------------------------------

          -----------------
          ENERGY COMPONENTS
          -----------------

         WAVEFUNCTION NORMALIZATION =       1.0000000000

                ONE ELECTRON ENERGY =    -929.8295772823
                TWO ELECTRON ENERGY =     294.1299756690
           NUCLEAR REPULSION ENERGY =      87.5415081320
                                      ------------------
                       TOTAL ENERGY =    -548.1580934814

 ELECTRON-ELECTRON POTENTIAL ENERGY =     294.1299756690
  NUCLEUS-ELECTRON POTENTIAL ENERGY =   -1476.5628335425
   NUCLEUS-NUCLEUS POTENTIAL ENERGY =      87.5415081320
                                      ------------------
             TOTAL POTENTIAL ENERGY =   -1094.8913497415
               TOTAL KINETIC ENERGY =     546.7332562602
                 VIRIAL RATIO (V/T) =       2.0026060921

          ---------------------------------------
          MULLIKEN AND LOWDIN POPULATION ANALYSES
          ---------------------------------------

     ATOMIC MULLIKEN POPULATION IN EACH MOLECULAR ORBITAL

                      1          2          3          4          5

                  2.000000   2.000000   2.000000   2.000000   2.000000

    1             1.999998   0.000933   0.000476   1.999924   1.999989
    2             0.000001   0.999534   0.999762   0.000038   0.000006
    3             0.000001   0.999534   0.999762   0.000038   0.000006

                      6          7          8          9         10

                  2.000000   2.000000   2.000000   2.000000   2.000000

    1             2.000002   1.999977   0.542858   0.143405   1.352783
    2            -0.000001   0.000011   0.728571   0.928298   0.323608
    3            -0.000001   0.000011   0.728571   0.928298   0.323608

                     11         12         13         14         15

                  2.000000   2.000000   2.000000   2.000000   2.000000

    1             0.719089   1.029311   1.248645   0.025505   0.105656
    2             0.640456   0.485345   0.375677   0.987248   0.947172
    3             0.640456   0.485345   0.375677   0.987248   0.947172

                     16

                  2.000000

    1             0.078891
    2             0.960554
    3             0.960554

               ----- POPULATIONS IN EACH AO -----
                             MULLIKEN      LOWDIN
              1  S  1  S      2.00022     1.99601
              2  S  1  S      2.01063     1.97374
              3  S  1  S      1.00880     0.64028
              4  S  1  S      0.87305     0.55781
              5  S  1  X      1.99611     1.95318
              6  S  1  Y      1.99636     1.95738
              7  S  1  Z      1.99662     1.95823
              8  S  1  X      0.63801     0.59685
              9  S  1  Y      0.71699     0.69417
             10  S  1  Z      0.75415     0.71973
             11  S  1  X      0.25531     0.35478
             12  S  1  Y      0.53049     0.57439
             13  S  1  Z      0.33087     0.45394
             14  S  1 XX      0.02496     0.24239
             15  S  1 YY      0.03215     0.24892
             16  S  1 ZZ      0.02550     0.24494
             17  S  1 XY      0.05241     0.02924
             18  S  1 XZ      0.00481     0.06884
             19  S  1 YZ      0.00000     0.00463
             20  O  2  S      1.99805     1.98135
             21  O  2  S      0.85699     0.67320
             22  O  2  S      1.11717     0.61454
             23  O  2  X      0.91491     0.87878
             24  O  2  Y      0.81933     0.79013
             25  O  2  Z      0.94073     0.90653
             26  O  2  X      0.57316     0.63461
             27  O  2  Y      0.54138     0.57716
             28  O  2  Z      0.60521     0.66614
             29  O  2 XX      0.00146     0.20999
             30  O  2 YY      0.00177     0.21481
             31  O  2 ZZ      0.00125     0.20974
             32  O  2 XY      0.00392     0.00160
             33  O  2 XZ      0.00097     0.00549
             34  O  2 YZ      0.00000     0.00120
             35  O  3  S      1.99805     1.98135
             36  O  3  S      0.85699     0.67320
             37  O  3  S      1.11717     0.61454
             38  O  3  X      0.91491     0.87878
             39  O  3  Y      0.81933     0.79013
             40  O  3  Z      0.94073     0.90653
             41  O  3  X      0.57316     0.63461
             42  O  3  Y      0.54138     0.57716
             43  O  3  Z      0.60521     0.66614
             44  O  3 XX      0.00146     0.20999
             45  O  3 YY      0.00177     0.21481
             46  O  3 ZZ      0.00125     0.20974
             47  O  3 XY      0.00392     0.00160
             48  O  3 XZ      0.00097     0.00549
             49  O  3 YZ      0.00000     0.00120

          ----- MULLIKEN ATOMIC OVERLAP POPULATIONS -----
          (OFF-DIAGONAL ELEMENTS NEED TO BE MULTIPLIED BY 2)

             1           2           3

    1   14.7624724
    2    0.2424851   8.1716535
    3    0.2424851  -0.0378599   8.1716535

          TOTAL MULLIKEN AND LOWDIN ATOMIC POPULATIONS
       ATOM         MULL.POP.    CHARGE          LOW.POP.     CHARGE
    1 S            15.247443    0.752557        15.269458    0.730542
    2 O             8.376279   -0.376279         8.365271   -0.365271
    3 O             8.376279   -0.376279         8.365271   -0.365271

          MULLIKEN SPHERICAL HARMONIC POPULATIONS
       ATOM           S       P       D      F      G      H      I    TOTAL
    1 S             5.89    9.21    0.14   0.00   0.00   0.00   0.00   15.25
    2 O             3.97    4.39    0.01   0.00   0.00   0.00   0.00    8.38
    3 O             3.97    4.39    0.01   0.00   0.00   0.00   0.00    8.38

          -------------------------------
          BOND ORDER AND VALENCE ANALYSIS     BOND ORDER THRESHOLD=0.050
          -------------------------------

                   BOND                       BOND                       BOND
  ATOM PAIR DIST  ORDER      ATOM PAIR DIST  ORDER      ATOM PAIR DIST  ORDER
    1   2  1.800  1.570        1   3  1.800  1.570        2   3  2.758  0.527

                       TOTAL       BONDED        FREE
      ATOM            VALENCE     VALENCE     VALENCE
    1 S                 3.141       3.141       0.000
    2 O                 2.097       2.097       0.000
    3 O                 2.097       2.097       0.000

          ---------------------
          ELECTROSTATIC MOMENTS
          ---------------------

 POINT   1           X           Y           Z (BOHR)    CHARGE
                 0.000000    0.000000    0.000000        0.00 (A.U.)
         DX          DY          DZ         /D/  (DEBYE)
     0.000000    0.000000   -2.960255    2.960255
 ...... END OF PROPERTY EVALUATION ......
 STEP CPU TIME =     0.01 TOTAL CPU TIME =        4.5 (    0.1 MIN)
 TOTAL WALL CLOCK TIME=        4.5 SECONDS, CPU UTILIZATION IS 100.00%
               580000  WORDS OF DYNAMIC MEMORY USED
 EXECUTION OF GAMESS TERMINATED NORMALLY Thu Feb 26 00:20:21 2015
 DDI: 263624 bytes (0.3 MB / 0 MWords) used by master data server.

 ----------------------------------------
 CPU timing information for all processes
 ========================================
 0: 4.429 + 0.30 = 4.460
 ----------------------------------------
 ddikick.x: exited gracefully.
----- accounting info -----
Files used on the master node dftfe.crc.nd.edu were:
-rw-r--r-- 1 pmehta1 campus   37475 Feb 26 00:20 /tmp/gamess.dat
-rw-r--r-- 1 pmehta1 campus     142 Feb 26 00:20 /tmp/gamess.F05
-rw-r--r-- 1 pmehta1 campus 2160288 Feb 26 00:20 /tmp/gamess.F08
-rw-r--r-- 1 pmehta1 campus 1220440 Feb 26 00:20 /tmp/gamess.F10
Thu Feb 26 00:20:24 EST 2015
0.231u 0.183s 0:07.89 5.1%	0+0k 0+104io 0pf+0w
