----- GAMESS execution script 'rungms' -----
This job is running on host dftfe.crc.nd.edu
under operating system Linux at Thu Feb 26 00:13:37 EST 2015
Available scratch disk space (Kbyte units) at beginning of the job is
Filesystem     1K-blocks     Used Available Use% Mounted on
/dev/sda2      147771864 22810896 117454536  17% /
GAMESS temporary binary files will be written to /tmp
GAMESS supplementary output files will be written to /tmp
Copying input file gamess.inp to your run's scratch directory...

 Distributed Data Interface kickoff program.
 Initiating 1 compute processes on 1 nodes to run the following command:
 /opt/crc/gamess/2012R1/gamess/gamess.00.x gamess 

          ******************************************************
          *         GAMESS VERSION =  1 MAY 2012 (R1)          *
          *             FROM IOWA STATE UNIVERSITY             *
          * M.W.SCHMIDT, K.K.BALDRIDGE, J.A.BOATZ, S.T.ELBERT, *
          *   M.S.GORDON, J.H.JENSEN, S.KOSEKI, N.MATSUNAGA,   *
          *          K.A.NGUYEN, S.J.SU, T.L.WINDUS,           *
          *       TOGETHER WITH M.DUPUIS, J.A.MONTGOMERY       *
          *         J.COMPUT.CHEM.  14, 1347-1363(1993)        *
          **************** 64 BIT LINUX VERSION ****************

  SINCE 1993, STUDENTS AND POSTDOCS WORKING AT IOWA STATE UNIVERSITY
  AND ALSO IN THEIR VARIOUS JOBS AFTER LEAVING ISU HAVE MADE IMPORTANT
  CONTRIBUTIONS TO THE CODE:
     IVANA ADAMOVIC, CHRISTINE AIKENS, YURI ALEXEEV, POOJA ARORA,
     ANDREY ASADCHEV, ROB BELL, PRADIPTA BANDYOPADHYAY, JONATHAN BENTZ,
     BRETT BODE, GALINA CHABAN, WEI CHEN, CHEOL HO CHOI, PAUL DAY,
     ALBERT DEFUSCO, TIM DUDLEY, DMITRI FEDOROV, GRAHAM FLETCHER,
     MARK FREITAG, KURT GLAESEMANN, DAN KEMP, GRANT MERRILL,
     NORIYUKI MINEZAWA, JONATHAN MULLIN, TAKESHI NAGATA,
     SEAN NEDD, HEATHER NETZLOFF, BOSILJKA NJEGIC, RYAN OLSON, MIKE PAK,
     JIM SHOEMAKER, LYUDMILA SLIPCHENKO, SAROM SOK, JIE SONG,
     TETSUYA TAKETSUGU, SIMON WEBB, SOOHAENG YOO, FEDERICO ZAHARIEV

  ADDITIONAL CODE HAS BEEN PROVIDED BY COLLABORATORS IN OTHER GROUPS:
     IOWA STATE UNIVERSITY:
          JOE IVANIC, LAIMUTIS BYTAUTAS, KLAUS RUEDENBERG
     UNIVERSITY OF TOKYO: KIMIHIKO HIRAO, TAKAHITO NAKAJIMA,
          TAKAO TSUNEDA, MUNEAKI KAMIYA, SUSUMU YANAGISAWA,
          KIYOSHI YAGI, MAHITO CHIBA, SEIKEN TOKURA, NAOAKI KAWAKAMI
     UNIVERSITY OF AARHUS: FRANK JENSEN
     UNIVERSITY OF IOWA: VISVALDAS KAIRYS, HUI LI
     NATIONAL INST. OF STANDARDS AND TECHNOLOGY: WALT STEVENS, DAVID GARMER
     UNIVERSITY OF PISA: BENEDETTA MENNUCCI, JACOPO TOMASI
     UNIVERSITY OF MEMPHIS: HENRY KURTZ, PRAKASHAN KORAMBATH
     UNIVERSITY OF ALBERTA: TOBY ZENG, MARIUSZ KLOBUKOWSKI
     UNIVERSITY OF NEW ENGLAND: MARK SPACKMAN
     MIE UNIVERSITY: HIROAKI UMEDA
     MICHIGAN STATE UNIVERSITY:
          KAROL KOWALSKI, MARTA WLOCH, JEFFREY GOUR, JESSE LUTZ, PIOTR PIECUCH
     UNIVERSITY OF SILESIA: MONIKA MUSIAL, STANISLAW KUCHARSKI
     FACULTES UNIVERSITAIRES NOTRE-DAME DE LA PAIX:
          OLIVIER QUINET, BENOIT CHAMPAGNE
     UNIVERSITY OF CALIFORNIA - SANTA BARBARA: BERNARD KIRTMAN
     INSTITUTE FOR MOLECULAR SCIENCE:
          KAZUYA ISHIMURA, MICHIO KATOUDA, AND SHIGERU NAGASE
     UNIVERSITY OF NOTRE DAME: DAN CHIPMAN
     KYUSHU UNIVERSITY:
          HARUYUKI NAKANO,
          FENG LONG GU, JACEK KORCHOWIEC, MARCIN MAKOWSKI, AND YURIKO AOKI,
          HIROTOSHI MORI AND EISAKU MIYOSHI
     PENNSYLVANIA STATE UNIVERSITY:
          TZVETELIN IORDANOV, CHET SWALINA, JONATHAN SKONE,
          SHARON HAMMES-SCHIFFER
     WASEDA UNIVERSITY:
          MASATO KOBAYASHI, TOMOKO AKAMA, TSUGUKI TOUMA,
          TAKESHI YOSHIKAWA, YASUHIRO IKABATA, HIROMI NAKAI
     UNIVERSITY OF NEBRASKA:
          PEIFENG SU, DEJUN SI, NANDUN THELLAMUREGE, YALI WANG, HUI LI
     UNIVERSITY OF ZURICH:
          ROBERTO PEVERATI, KIM BALDRIDGE
     N. COPERNICUS UNIVERSITY AND JACKSON STATE UNIVERSITY:
          MARIA BARYSZ

 EXECUTION OF GAMESS BEGUN Thu Feb 26 00:13:37 2015

            ECHO OF THE FIRST FEW INPUT CARDS -
 INPUT CARD> $BASIS GBASIS=PC1 $END                                                         
 INPUT CARD> $CONTRL COORD=ZMT ISPHER=1 RUNTYP=ENERGY DFTTYP=PBE $END                       
 INPUT CARD>                                                                                
 INPUT CARD> $DATA                                                                          
 INPUT CARD>Title                                                                           
 INPUT CARD>Cnv 2                                                                           
 INPUT CARD>                                                                                
 INPUT CARD>S                                                                               
 INPUT CARD>O 1 1.20                                                                        
 INPUT CARD>O 1 1.20 2 170.0                                                                
 INPUT CARD> $END                                                                           
    1000000 WORDS OF MEMORY AVAILABLE

     BASIS OPTIONS
     -------------
     GBASIS=PC1          IGAUSS=       0      POLAR=NONE    
     NDFUNC=       0     NFFUNC=       0     DIFFSP=       F
     NPFUNC=       0      DIFFS=       F     BASNAM=        


     RUN TITLE
     ---------
 Title                                                                           

 THE POINT GROUP OF THE MOLECULE IS CNV     
 THE ORDER OF THE PRINCIPAL AXIS IS     2

 YOUR FULLY SUBSTITUTED Z-MATRIX IS
 S   
 O      1   1.2000000
 O      1   1.2000000  2  170.0000

 THE MOMENTS OF INERTIA ARE (AMU-ANGSTROM**2)
 IXX=     0.175   IYY=    45.715   IZZ=    45.890

 ATOM      ATOMIC                      COORDINATES (BOHR)
           CHARGE         X                   Y                   Z
 S          16.0     0.0000000000        0.0000000000       -0.0988477067
 O           8.0    -2.2590420118        0.0000000000        0.0987928597
 O           8.0     2.2590420118        0.0000000000        0.0987928597

          INTERNUCLEAR DISTANCES (ANGS.)
          ------------------------------

                1 S          2 O          3 O     

   1 S       0.0000000    1.2000000 *  1.2000000 *
   2 O       1.2000000 *  0.0000000    2.3908673 *
   3 O       1.2000000 *  2.3908673 *  0.0000000  

  * ... LESS THAN  3.000


     ATOMIC BASIS SET
     ----------------
 THE CONTRACTED PRIMITIVE FUNCTIONS HAVE BEEN UNNORMALIZED
 THE CONTRACTED BASIS FUNCTIONS ARE NOW NORMALIZED TO UNITY

  SHELL TYPE  PRIMITIVE        EXPONENT          CONTRACTION COEFFICIENT(S)

 S         

      1   S       1         55510.0000000    0.000587229760
      1   S       2          8326.7000000    0.004532413947
      1   S       3          1895.6000000    0.023265261648
      1   S       4           536.7700000    0.089696133027
      1   S       5           174.6700000    0.254098332277
      1   S       6            62.5780000    0.438665087637
      1   S       7            23.5730000    0.314547135094
      1   S       8             5.8908000    0.032727897102

      2   S       9          8326.7000000   -0.000019755715
      2   S      10          1895.6000000   -0.000043822381
      2   S      11           536.7700000   -0.001730264906
      2   S      12           174.6700000   -0.009381263460
      2   S      13            62.5780000   -0.064050766303
      2   S      14            23.5730000   -0.082478179196
      2   S      15             5.8908000    0.478342956889
      2   S      16             2.1852000    0.626896670208

      3   S      17          1895.6000000    0.000016227260
      3   S      18           536.7700000    0.000191135619
      3   S      19           174.6700000    0.001952069674
      3   S      20            62.5780000    0.010578701087
      3   S      21            23.5730000    0.022164934551
      3   S      22             5.8908000   -0.184968323118
      3   S      23             2.1852000   -0.480920750976
      3   S      24             0.4528200    1.243822243872

      4   S      25             0.1620200    1.000000000000

      5   P      26           395.4500000    0.004642761329
      5   P      27            92.8340000    0.036023396489
      5   P      28            29.2660000    0.149058869978
      5   P      29            10.5950000    0.360033266263
      5   P      30             4.0272000    0.455756476221
      5   P      31             1.5484000    0.206167664178

      6   P      32            92.8340000    0.000169901442
      6   P      33            29.2660000   -0.002541839934
      6   P      34            10.5950000   -0.007867614595
      6   P      35             4.0272000   -0.037231009184
      6   P      36             1.5484000    0.161417246830
      6   P      37             0.4613400    0.902230419976

      7   P      38             0.1313100    1.000000000000

      8   D      39             0.5500000    1.000000000000

 O         

     15   S      40          2306.7000000    0.005424388755
     15   S      41           347.1500000    0.040474749465
     15   S      42            78.8900000    0.180219634554
     15   S      43            21.8760000    0.462370311787
     15   S      44             6.6646000    0.454888396263

     16   S      45           347.1500000   -0.000655003786
     16   S      46            78.8900000   -0.005362052952
     16   S      47            21.8760000   -0.074902158894
     16   S      48             6.6646000   -0.181442579655
     16   S      49             1.0669000    1.102006874042

     17   S      50             0.3070000    1.000000000000

     18   P      51            17.0220000    0.068979967443
     18   P      52             3.6838000    0.351985516325
     18   P      53             0.9923400    0.724036547822

     19   P      54             0.2448700    1.000000000000

     20   D      55             1.0000000    1.000000000000

 TOTAL NUMBER OF BASIS SET SHELLS             =   20
 NUMBER OF CARTESIAN GAUSSIAN BASIS FUNCTIONS =   49
 NOTE: THIS RUN WILL RESTRICT THE MO VARIATION SPACE TO SPHERICAL HARMONICS.
 THE NUMBER OF ORBITALS KEPT IN THE VARIATIONAL SPACE WILL BE PRINTED LATER.
 NUMBER OF ELECTRONS                          =   32
 CHARGE OF MOLECULE                           =    0
 SPIN MULTIPLICITY                            =    1
 NUMBER OF OCCUPIED ORBITALS (ALPHA)          =   16
 NUMBER OF OCCUPIED ORBITALS (BETA )          =   16
 TOTAL NUMBER OF ATOMS                        =    3
 THE NUCLEAR REPULSION ENERGY IS      127.0564430476

     LEBEDEV GRID-BASED DFT OPTIONS
     ------------------------------
     DFTTYP=PBE     
     NRAD  =      96     NLEB  =     302
     NRAD0 =      24     NLEB0 =     110
     SWOFF =    5.00E-03 (PURE SCF -> DFT)
     SWITCH=    3.00E-04 (COARSE -> TIGHT GRID)
     THRESH=    0.00E+00 GTHRE=    1.00E+00

 GRIMME'S EMPIRICAL DISPERSION CORRECTION= F

     $CONTRL OPTIONS
     ---------------
 SCFTYP=RHF          RUNTYP=ENERGY       EXETYP=RUN     
 MPLEVL=       0     CITYP =NONE         CCTYP =NONE         VBTYP =NONE    
 DFTTYP=PBE          TDDFT =NONE    
 MULT  =       1     ICHARG=       0     NZVAR =       0     COORD =ZMT     
 PP    =NONE         RELWFN=NONE         LOCAL =NONE         NUMGRD=       F
 ISPHER=       1     NOSYM =       0     MAXIT =      30     UNITS =ANGS    
 PLTORB=       F     MOLPLT=       F     AIMPAC=       F     FRIEND=        
 NPRINT=       7     IREST =       0     GEOM  =INPUT   
 NORMF =       0     NORMP =       0     ITOL  =      20     ICUT  =       9
 INTTYP=BEST         GRDTYP=BEST         QMTTOL= 1.0E-06

     $SYSTEM OPTIONS
     ---------------
  REPLICATED MEMORY=     1000000 WORDS (ON EVERY NODE).
 DISTRIBUTED MEMDDI=           0 MILLION WORDS IN AGGREGATE,
 MEMDDI DISTRIBUTED OVER   1 PROCESSORS IS           0 WORDS/PROCESSOR.
 TOTAL MEMORY REQUESTED ON EACH PROCESSOR=     1000000 WORDS.
 TIMLIM=      525600.00 MINUTES, OR     365.0 DAYS.
 PARALL= F  BALTYP=  DLB     KDIAG=    0  COREFL= F
 MXSEQ2=     300 MXSEQ3=     150

          ----------------
          PROPERTIES INPUT
          ----------------

     MOMENTS            FIELD           POTENTIAL          DENSITY
 IEMOM =       1   IEFLD =       0   IEPOT =       0   IEDEN =       0
 WHERE =COMASS     WHERE =NUCLEI     WHERE =NUCLEI     WHERE =NUCLEI  
 OUTPUT=BOTH       OUTPUT=BOTH       OUTPUT=BOTH       OUTPUT=BOTH    
 IEMINT=       0   IEFINT=       0                     IEDINT=       0
                                                       MORB  =       0
          EXTRAPOLATION IN EFFECT
          DIIS IN EFFECT
 ORBITAL PRINTING OPTION: NPREO=     1    49     2     1

     -------------------------------
     INTEGRAL TRANSFORMATION OPTIONS
     -------------------------------
     NWORD  =            0
     CUTOFF = 1.0E-09     MPTRAN =       0
     DIRTRF =       F     AOINTS =DUP     

          ----------------------
          INTEGRAL INPUT OPTIONS
          ----------------------
 NOPK  =       1 NORDER=       0 SCHWRZ=       F

   --- ENCODED Z MATRIX ---
 COORD  TYPE   I   J   K   L   M   N
    1      1    3   1
    2      1    2   1
    3      2    2   1   3

 THE DETERMINANT OF THE G MATRIX IS 10**(    -4)

 THE DETERMINANT OF THE G MATRIX IS 10**(    -4)
 * * * WARNING * * *
 YOUR B MATRIX HAS A SMALL DETERMINANT.
 THIS SUGGESTS YOU MAY HAVE BADLY CHOSEN COORDINATES.

     ------------------------------------------
     THE POINT GROUP IS CNV, NAXIS= 2, ORDER= 4
     ------------------------------------------

 -- VARIATIONAL SPACE WILL BE RESTRICTED TO PURE SPHERICAL HARMONICS ONLY --
 AFTER EXCLUDING CONTAMINANT COMBINATIONS FROM THE CARTESIAN GAUSSIAN BASIS
 SET, THE NUMBER OF SPHERICAL HARMONICS KEPT IN THE VARIATION SPACE IS   46

     DIMENSIONS OF THE SYMMETRY SUBSPACES ARE
 A1  =   19     A2  =    5     B1  =   14     B2  =    8

 ..... DONE SETTING UP THE RUN .....
 STEP CPU TIME =     0.16 TOTAL CPU TIME =        0.2 (    0.0 MIN)
 TOTAL WALL CLOCK TIME=        0.2 SECONDS, CPU UTILIZATION IS  94.12%

          ********************
          1 ELECTRON INTEGRALS
          ********************
 ...... END OF ONE-ELECTRON INTEGRALS ......
 STEP CPU TIME =     0.00 TOTAL CPU TIME =        0.2 (    0.0 MIN)
 TOTAL WALL CLOCK TIME=        0.2 SECONDS, CPU UTILIZATION IS  94.12%

          -------------
          GUESS OPTIONS
          -------------
          GUESS =HUCKEL            NORB  =       0          NORDER=       0
          MIX   =       F          PRTMO =       F          PUNMO =       F
          TOLZ  = 1.0E-08          TOLE  = 1.0E-05
          SYMDEN=       F          PURIFY=       F

 INITIAL GUESS ORBITALS GENERATED BY HUCKEL   ROUTINE.
 HUCKEL GUESS REQUIRES     21583 WORDS.

 STATISTICS FOR GENERATION OF SYMMETRY ORBITAL -Q- MATRIX
 NUMBER OF CARTESIAN ATOMIC ORBITALS=         49
 NUMBER OF SPHERICAL CONTAMINANTS DROPPED=     3
 NUMBER OF LINEARLY DEPENDENT MOS DROPPED=     0
 TOTAL NUMBER OF MOS IN VARIATION SPACE=      46

 SYMMETRIES FOR INITIAL GUESS ORBITALS FOLLOW.   BOTH SET(S).
    16 ORBITALS ARE OCCUPIED (    7 CORE ORBITALS).
     8=A1       9=?B1     10=?A1     11=B2      12=A1      13=B1      14=A2  
    15=B1      16=A1      17=B2      18=A1      19=B1      20=A1      21=A1  
    22=A1      23=A1      24=A1      25=A1      26=A1  
 ...... END OF INITIAL ORBITAL SELECTION ......
 STEP CPU TIME =     0.01 TOTAL CPU TIME =        0.2 (    0.0 MIN)
 TOTAL WALL CLOCK TIME=        0.2 SECONDS, CPU UTILIZATION IS  94.44%

                    ----------------------
                    AO INTEGRAL TECHNOLOGY
                    ----------------------
     S,P,L SHELL ROTATED AXIS INTEGRALS, REPROGRAMMED BY
        KAZUYA ISHIMURA (IMS) AND JOSE SIERRA (SYNSTAR).
     S,P,D,L SHELL ROTATED AXIS INTEGRALS PROGRAMMED BY
        KAZUYA ISHIMURA (INSTITUTE FOR MOLECULAR SCIENCE).
     S,P,D,F,G SHELL TO TOTAL QUARTET ANGULAR MOMENTUM SUM 5,
        ERIC PROGRAM BY GRAHAM FLETCHER (ELORET AND NASA ADVANCED
        SUPERCOMPUTING DIVISION, AMES RESEARCH CENTER).
     S,P,D,F,G,L SHELL GENERAL RYS QUADRATURE PROGRAMMED BY
        MICHEL DUPUIS (PACIFIC NORTHWEST NATIONAL LABORATORY).

          --------------------
          2 ELECTRON INTEGRALS
          --------------------

 THE -PK- OPTION IS OFF, THE INTEGRALS ARE NOT IN SUPERMATRIX FORM.
 STORING   15000 INTEGRALS/RECORD ON DISK, USING 12 BYTES/INTEGRAL.
 TWO ELECTRON INTEGRAL EVALUATION REQUIRES   90606 WORDS OF MEMORY.
 II,JST,KST,LST =  1  1  1  1 NREC =         1 INTLOC =    1
 II,JST,KST,LST =  2  1  1  1 NREC =         1 INTLOC =    2
 II,JST,KST,LST =  3  1  1  1 NREC =         1 INTLOC =    7
 II,JST,KST,LST =  4  1  1  1 NREC =         1 INTLOC =   22
 II,JST,KST,LST =  5  1  1  1 NREC =         1 INTLOC =   56
 II,JST,KST,LST =  6  1  1  1 NREC =         1 INTLOC =  125
 II,JST,KST,LST =  7  1  1  1 NREC =         1 INTLOC =  329
 II,JST,KST,LST =  8  1  1  1 NREC =         1 INTLOC =  776
 II,JST,KST,LST =  9  1  1  1 NREC =         1 INTLOC = 2864
 II,JST,KST,LST = 10  1  1  1 NREC =         1 INTLOC = 2864
 II,JST,KST,LST = 11  1  1  1 NREC =         1 INTLOC = 2864
 II,JST,KST,LST = 12  1  1  1 NREC =         1 INTLOC = 2864
 II,JST,KST,LST = 13  1  1  1 NREC =         1 INTLOC = 2864
 II,JST,KST,LST = 14  1  1  1 NREC =         1 INTLOC = 2864
 II,JST,KST,LST = 15  1  1  1 NREC =         1 INTLOC = 2864
 II,JST,KST,LST = 16  1  1  1 NREC =         1 INTLOC = 5167
 II,JST,KST,LST = 17  1  1  1 NREC =         1 INTLOC = 8397
 II,JST,KST,LST = 18  1  1  1 NREC =         1 INTLOC =12849
 II,JST,KST,LST = 19  1  1  1 NREC =         3 INTLOC =  889
 II,JST,KST,LST = 20  1  1  1 NREC =         5 INTLOC = 2162
 TOTAL NUMBER OF NONZERO TWO-ELECTRON INTEGRALS =              179294
         12 INTEGRAL RECORDS WERE STORED ON DISK FILE  8.
  ...... END OF TWO-ELECTRON INTEGRALS .....
 STEP CPU TIME =     0.17 TOTAL CPU TIME =        0.3 (    0.0 MIN)
 TOTAL WALL CLOCK TIME=        0.3 SECONDS, CPU UTILIZATION IS  97.14%

          --------------------------
               R-PBE SCF CALCULATION
          --------------------------

     NUCLEAR ENERGY =       127.0564430476
     MAXIT =   30     NPUNCH=    2
     EXTRAP=T  DAMP=F  SHIFT=F  RSTRCT=F  DIIS=T  DEM=F  SOSCF=F
         DENSITY MATRIX CONVERGENCE THRESHOLD=  1.00E-05
     COARSE -> FINE DFT GRID SWITCH THRESHOLD=  3.00E-04 (SWITCH IN $DFT)
                   HF -> DFT SWITCH THRESHOLD=  5.00E-03 (SWOFF IN $DFT)
     MEMORY REQUIRED FOR RHF ITERS=    183108 WORDS.

 DFT CODE IS SWITCHING FROM THE FINE GRID NRAD= 96,  NLEB=  302
                      TO THE COARSE GRID NRAD0= 24, NLEB0=  110

     EXCHANGE FUNCTIONAL   =PBE       
     CORRELATION FUNCTIONAL=PBE       
     DFT THRESHOLD         =.460E-07
     GRID CHANGE THRESHOLD =.300E-03
 FOR AN EULER-MACLAURIN QUADRATURE USING  96 RADIAL POINTS:
 SMALLEST GAUSSIAN PRIMITIVE EXPONENT=        0.1313100000 OF TYPE -P-
 ON ATOM NUMBER   1 HAS RADIAL NORMALIZATION=  1.000000
  LARGEST GAUSSIAN PRIMITIVE EXPONENT=    55510.0000000000 OF TYPE -S-
 ON ATOM NUMBER   1 HAS RADIAL NORMALIZATION=  0.999999
 DFT IS SWITCHED OFF, PERFORMING PURE SCF UNTIL SWOFF THRESHOLD IS REACHED.

 ITER EX DEM     TOTAL ENERGY        E CHANGE  DENSITY CHANGE    DIIS ERROR
   1  0  0     -545.3847735124  -545.3847735124   0.452878839   1.399465123
          * * *   INITIATING DIIS PROCEDURE   * * *
   2  1  0     -546.4417299168    -1.0569564044   0.886420360   0.191116457
   3  2  0     -546.5842507795    -0.1425208627   0.561405683   0.103939076
   4  3  0     -546.6501683084    -0.0659175289   0.607665713   0.056409808
   5  4  0     -546.6955015190    -0.0453332107   0.472914869   0.040327659
   6  5  0     -546.7230565785    -0.0275550594   0.234099638   0.023163513
   7  6  0     -546.7327475771    -0.0096909986   0.058856770   0.006724705
   8  7  0     -546.7332412509    -0.0004936738   0.008754081   0.001403643
   9  8  0     -546.7332440889    -0.0000028380   0.004419472   0.000506311
 CONVERGED TO SWOFF, SO DFT CALCULATION IS NOW SWITCHED ON.
          * * *   INITIATING DIIS PROCEDURE   * * *
  10  9  0     -547.8054254524    -1.0721813635   0.188044496   0.108874209
  11 10  0     -547.8195120110    -0.0140865587   0.185195915   0.040991965
  12 11  0     -547.8170457916     0.0024662194   0.089615831   0.048710417
  13 12  0     -547.8261673869    -0.0091215953   0.033924446   0.008126587
  14 13  0     -547.8262882922    -0.0001209053   0.008853678   0.001046938
  15 14  0     -547.8262925202    -0.0000042280   0.004266366   0.000540358
  16 15  0     -547.8262939019    -0.0000013817   0.000146461   0.000030278
 DFT CODE IS SWITCHING BACK TO THE FINE GRID
          * * *   INITIATING DIIS PROCEDURE   * * *
  17 16  0     -547.8312948982    -0.0050009963   0.010816748   0.009934406
  18 17  0     -547.8313700263    -0.0000751281   0.005620878   0.005619778
  19 18  0     -547.8313965296    -0.0000265034   0.002309369   0.004108402
  20 19  0     -547.8314322025    -0.0000356729   0.001558282   0.000241420
  21 20  0     -547.8314324459    -0.0000002434   0.000615260   0.000163201
  22 21  0     -547.8314325454    -0.0000000995   0.000126331   0.000012246
  23 22  0     -547.8314325459    -0.0000000005   0.000026591   0.000002638
  24 23  0     -547.8314325459     0.0000000000   0.000002264   0.000000348
  25 24  0     -547.8314325459     0.0000000000   0.000000025   0.000000024

          -----------------
          DENSITY CONVERGED
          -----------------
     TIME TO FORM FOCK OPERATORS=       5.0 SECONDS (       0.2 SEC/ITER)
     TIME TO SOLVE SCF EQUATIONS=       0.0 SECONDS (       0.0 SEC/ITER)

 FINAL R-PBE ENERGY IS     -547.8314325459 AFTER  25 ITERATIONS
 DFT EXCHANGE + CORRELATION ENERGY =       -43.0066986312
 TOTAL ELECTRON NUMBER             =        32.0000006292

          ------------
          EIGENVECTORS
          ------------

                      1          2          3          4          5
                  -88.1793   -18.7803   -18.7803    -7.8156    -5.8419
                     A1         A1         B1         A1         B1  
    1  S  1  S    1.003000  -0.000085   0.000000  -0.273839   0.000000
    2  S  1  S   -0.010143   0.000784   0.000000   1.039333   0.000000
    3  S  1  S    0.002260  -0.000517   0.000000   0.043103   0.000000
    4  S  1  S   -0.000006   0.007701   0.000000  -0.005738   0.000000
    5  S  1  X    0.000000   0.000000  -0.000207   0.000000   0.994552
    6  S  1  Y    0.000000   0.000000   0.000000   0.000000   0.000000
    7  S  1  Z    0.000033   0.000009   0.000000   0.007917   0.000000
    8  S  1  X    0.000000   0.000000   0.000142   0.000000   0.011441
    9  S  1  Y    0.000000   0.000000   0.000000   0.000000   0.000000
   10  S  1  Z    0.000055   0.000048   0.000000   0.001067   0.000000
   11  S  1  X    0.000000   0.000000  -0.009448   0.000000  -0.000833
   12  S  1  Y    0.000000   0.000000   0.000000   0.000000   0.000000
   13  S  1  Z    0.000019   0.000964   0.000000  -0.000124   0.000000
   14  S  1 XX    0.000557  -0.003469   0.000000   0.004460   0.000000
   15  S  1 YY   -0.000280   0.001715   0.000000  -0.002227   0.000000
   16  S  1 ZZ   -0.000277   0.001754   0.000000  -0.002233   0.000000
   17  S  1 XY    0.000000   0.000000   0.000000   0.000000   0.000000
   18  S  1 XZ    0.000000   0.000000   0.000546   0.000000   0.001133
   19  S  1 YZ    0.000000   0.000000   0.000000   0.000000   0.000000
   20  O  2  S    0.000009   0.703194   0.703221  -0.001144   0.002470
   21  O  2  S   -0.000061   0.027340   0.027334   0.000022  -0.003093
   22  O  2  S   -0.000692  -0.011747  -0.016229  -0.003892  -0.000291
   23  O  2  X   -0.000256   0.002392   0.001220   0.000284  -0.004864
   24  O  2  Y    0.000000   0.000000   0.000000   0.000000   0.000000
   25  O  2  Z    0.000031  -0.000099   0.000001   0.000027   0.000557
   26  O  2  X   -0.000462  -0.003161  -0.002032  -0.003248   0.000391
   27  O  2  Y    0.000000   0.000000   0.000000   0.000000   0.000000
   28  O  2  Z    0.000053  -0.000315   0.000651   0.000395   0.000232
   29  O  2 XX   -0.000144   0.000280   0.000217   0.001127  -0.002347
   30  O  2 YY    0.000075  -0.000159  -0.000085  -0.000559   0.001211
   31  O  2 ZZ    0.000069  -0.000121  -0.000131  -0.000568   0.001136
   32  O  2 XY    0.000000   0.000000   0.000000   0.000000   0.000000
   33  O  2 XZ    0.000042  -0.000254   0.000190  -0.000059   0.000603
   34  O  2 YZ    0.000000   0.000000   0.000000   0.000000   0.000000
   35  O  3  S    0.000009   0.703194  -0.703221  -0.001144  -0.002470
   36  O  3  S   -0.000061   0.027340  -0.027334   0.000022   0.003093
   37  O  3  S   -0.000692  -0.011747   0.016229  -0.003892   0.000291
   38  O  3  X    0.000256  -0.002392   0.001220  -0.000284  -0.004864
   39  O  3  Y    0.000000   0.000000   0.000000   0.000000   0.000000
   40  O  3  Z    0.000031  -0.000099  -0.000001   0.000027  -0.000557
   41  O  3  X    0.000462   0.003161  -0.002032   0.003248   0.000391
   42  O  3  Y    0.000000   0.000000   0.000000   0.000000   0.000000
   43  O  3  Z    0.000053  -0.000315  -0.000651   0.000395  -0.000232
   44  O  3 XX   -0.000144   0.000280  -0.000217   0.001127   0.002347
   45  O  3 YY    0.000075  -0.000159   0.000085  -0.000559  -0.001211
   46  O  3 ZZ    0.000069  -0.000121   0.000131  -0.000568  -0.001136
   47  O  3 XY    0.000000   0.000000   0.000000   0.000000   0.000000
   48  O  3 XZ   -0.000042   0.000254   0.000190   0.000059   0.000603
   49  O  3 YZ    0.000000   0.000000   0.000000   0.000000   0.000000

                      6          7          8          9         10
                   -5.8295    -5.8285    -1.1725    -1.0878    -0.5271
                     B2         A1         A1         B1         A1  
    1  S  1  S    0.000000   0.002331   0.061449   0.000000  -0.048854
    2  S  1  S    0.000000  -0.008634  -0.193662   0.000000   0.132300
    3  S  1  S    0.000000   0.000615   0.320991   0.000000  -0.311046
    4  S  1  S    0.000000  -0.000604   0.110380   0.000000  -0.152721
    5  S  1  X    0.000000   0.000000   0.000000  -0.211303   0.000000
    6  S  1  Y    0.996759   0.000000   0.000000   0.000000   0.000000
    7  S  1  Z    0.000000   0.996726  -0.021468   0.000000   0.032241
    8  S  1  X    0.000000   0.000000   0.000000   0.342578   0.000000
    9  S  1  Y    0.009109   0.000000   0.000000   0.000000   0.000000
   10  S  1  Z    0.000000   0.009074   0.037209   0.000000  -0.072895
   11  S  1  X    0.000000   0.000000   0.000000  -0.009393   0.000000
   12  S  1  Y   -0.000504   0.000000   0.000000   0.000000   0.000000
   13  S  1  Z    0.000000  -0.000505  -0.002458   0.000000  -0.011993
   14  S  1 XX    0.000000  -0.000412   0.105167   0.000000   0.025324
   15  S  1 YY    0.000000  -0.000317  -0.053163   0.000000  -0.010719
   16  S  1 ZZ    0.000000   0.000729  -0.052005   0.000000  -0.014605
   17  S  1 XY    0.000000   0.000000   0.000000   0.000000   0.000000
   18  S  1 XZ    0.000000   0.000000   0.000000   0.026500   0.000000
   19  S  1 YZ    0.000603   0.000000   0.000000   0.000000   0.000000
   20  O  2  S    0.000000  -0.000193  -0.129656   0.145490  -0.099382
   21  O  2  S    0.000000   0.000314   0.237553  -0.283451   0.203203
   22  O  2  S    0.000000   0.000235   0.218264  -0.274491   0.354914
   23  O  2  X    0.000000   0.000501   0.142697  -0.149064  -0.310439
   24  O  2  Y    0.000661   0.000000   0.000000   0.000000   0.000000
   25  O  2  Z    0.000000   0.000615  -0.005520   0.009341  -0.018905
   26  O  2  X    0.000000   0.000012   0.033337  -0.017115  -0.166269
   27  O  2  Y    0.000114   0.000000   0.000000   0.000000   0.000000
   28  O  2  Z    0.000000   0.000105   0.003339   0.002556  -0.010715
   29  O  2 XX    0.000000   0.000238   0.019418  -0.018231  -0.019043
   30  O  2 YY    0.000000  -0.000028  -0.009410   0.009286   0.009526
   31  O  2 ZZ    0.000000  -0.000210  -0.010008   0.008945   0.009517
   32  O  2 XY    0.000777   0.000000   0.000000   0.000000   0.000000
   33  O  2 XZ    0.000000   0.000743   0.000762   0.004071  -0.001434
   34  O  2 YZ   -0.000107   0.000000   0.000000   0.000000   0.000000
   35  O  3  S    0.000000  -0.000193  -0.129656  -0.145490  -0.099382
   36  O  3  S    0.000000   0.000314   0.237553   0.283451   0.203203
   37  O  3  S    0.000000   0.000235   0.218264   0.274491   0.354914
   38  O  3  X    0.000000  -0.000501  -0.142697  -0.149064   0.310439
   39  O  3  Y    0.000661   0.000000   0.000000   0.000000   0.000000
   40  O  3  Z    0.000000   0.000615  -0.005520  -0.009341  -0.018905
   41  O  3  X    0.000000  -0.000012  -0.033337  -0.017115   0.166269
   42  O  3  Y    0.000114   0.000000   0.000000   0.000000   0.000000
   43  O  3  Z    0.000000   0.000105   0.003339  -0.002556  -0.010715
   44  O  3 XX    0.000000   0.000238   0.019418   0.018231  -0.019043
   45  O  3 YY    0.000000  -0.000028  -0.009410  -0.009286   0.009526
   46  O  3 ZZ    0.000000  -0.000210  -0.010008  -0.008945   0.009517
   47  O  3 XY   -0.000777   0.000000   0.000000   0.000000   0.000000
   48  O  3 XZ    0.000000  -0.000743  -0.000762   0.004071   0.001434
   49  O  3 YZ   -0.000107   0.000000   0.000000   0.000000   0.000000

                     11         12         13         14         15
                   -0.5154    -0.5133    -0.4576    -0.4062    -0.4042
                     B2         A1         B1         A2         B1  
    1  S  1  S    0.000000  -0.010382   0.000000   0.000000   0.000000
    2  S  1  S    0.000000   0.027061   0.000000   0.000000   0.000000
    3  S  1  S    0.000000  -0.067714   0.000000   0.000000   0.000000
    4  S  1  S    0.000000  -0.046615   0.000000   0.000000   0.000000
    5  S  1  X    0.000000   0.000000   0.161001   0.000000  -0.003478
    6  S  1  Y   -0.203553   0.000000   0.000000   0.000000   0.000000
    7  S  1  Z    0.000000  -0.199195   0.000000   0.000000   0.000000
    8  S  1  X    0.000000   0.000000  -0.333102   0.000000   0.004658
    9  S  1  Y    0.446897   0.000000   0.000000   0.000000   0.000000
   10  S  1  Z    0.000000   0.436445   0.000000   0.000000   0.000000
   11  S  1  X    0.000000   0.000000   0.070588   0.000000   0.006690
   12  S  1  Y    0.145832   0.000000   0.000000   0.000000   0.000000
   13  S  1  Z    0.000000   0.144286   0.000000   0.000000   0.000000
   14  S  1 XX    0.000000  -0.031428   0.000000   0.000000   0.000000
   15  S  1 YY    0.000000  -0.002966   0.000000   0.000000   0.000000
   16  S  1 ZZ    0.000000   0.034394   0.000000   0.000000   0.000000
   17  S  1 XY    0.000000   0.000000   0.000000  -0.195036   0.000000
   18  S  1 XZ    0.000000   0.000000  -0.009196   0.000000  -0.193825
   19  S  1 YZ    0.021711   0.000000   0.000000   0.000000   0.000000
   20  O  2  S    0.000000  -0.009251   0.065118   0.000000   0.002153
   21  O  2  S    0.000000   0.021617  -0.137590   0.000000  -0.009599
   22  O  2  S    0.000000   0.045104  -0.255287   0.000000  -0.011481
   23  O  2  X    0.000000  -0.009226   0.413965   0.000000   0.060169
   24  O  2  Y    0.345316   0.000000   0.000000   0.454636   0.000000
   25  O  2  Z    0.000000   0.345132  -0.056562   0.000000   0.451119
   26  O  2  X    0.000000   0.000268   0.196467   0.000000   0.036629
   27  O  2  Y    0.182821   0.000000   0.000000   0.277393   0.000000
   28  O  2  Z    0.000000   0.182103  -0.034075   0.000000   0.275643
   29  O  2 XX    0.000000   0.002801   0.022727   0.000000   0.002463
   30  O  2 YY    0.000000   0.000012  -0.011645   0.000000  -0.001362
   31  O  2 ZZ    0.000000  -0.002813  -0.011081   0.000000  -0.001101
   32  O  2 XY    0.032175   0.000000   0.000000   0.018265   0.000000
   33  O  2 XZ    0.000000   0.031226  -0.005202   0.000000   0.018524
   34  O  2 YZ   -0.001695   0.000000   0.000000   0.000190   0.000000
   35  O  3  S    0.000000  -0.009251  -0.065118   0.000000  -0.002153
   36  O  3  S    0.000000   0.021617   0.137590   0.000000   0.009599
   37  O  3  S    0.000000   0.045104   0.255287   0.000000   0.011481
   38  O  3  X    0.000000   0.009226   0.413965   0.000000   0.060169
   39  O  3  Y    0.345316   0.000000   0.000000  -0.454636   0.000000
   40  O  3  Z    0.000000   0.345132   0.056562   0.000000  -0.451119
   41  O  3  X    0.000000  -0.000268   0.196467   0.000000   0.036629
   42  O  3  Y    0.182821   0.000000   0.000000  -0.277393   0.000000
   43  O  3  Z    0.000000   0.182103   0.034075   0.000000  -0.275643
   44  O  3 XX    0.000000   0.002801  -0.022727   0.000000  -0.002463
   45  O  3 YY    0.000000   0.000012   0.011645   0.000000   0.001362
   46  O  3 ZZ    0.000000  -0.002813   0.011081   0.000000   0.001101
   47  O  3 XY   -0.032175   0.000000   0.000000   0.018265   0.000000
   48  O  3 XZ    0.000000  -0.031226  -0.005202   0.000000   0.018524
   49  O  3 YZ   -0.001695   0.000000   0.000000  -0.000190   0.000000

                     16         17         18         19         20
                   -0.1612    -0.0392    -0.0299     0.2373     0.3490
                     A1         B2         A1         B1         B2  
    1  S  1  S    0.026030   0.000000   0.002686   0.000000   0.000000
    2  S  1  S   -0.161961   0.000000  -0.038373   0.000000   0.000000
    3  S  1  S    0.070933   0.000000  -0.016983   0.000000   0.000000
    4  S  1  S    1.312700   0.000000   0.417831   0.000000   0.000000
    5  S  1  X    0.000000   0.000000   0.000000  -0.015583   0.000000
    6  S  1  Y    0.000000  -0.203714   0.000000   0.000000   0.292335
    7  S  1  Z    0.053415   0.000000  -0.196233   0.000000   0.000000
    8  S  1  X    0.000000   0.000000   0.000000   0.128498   0.000000
    9  S  1  Y    0.000000   0.544984   0.000000   0.000000  -1.111136
   10  S  1  Z   -0.123459   0.000000   0.529304   0.000000   0.000000
   11  S  1  X    0.000000   0.000000   0.000000   2.230306   0.000000
   12  S  1  Y    0.000000   0.762151   0.000000   0.000000   1.215259
   13  S  1  Z   -0.072484   0.000000   0.776484   0.000000   0.000000
   14  S  1 XX   -0.289831   0.000000  -0.067375   0.000000   0.000000
   15  S  1 YY    0.147541   0.000000   0.043545   0.000000   0.000000
   16  S  1 ZZ    0.142290   0.000000   0.023830   0.000000   0.000000
   17  S  1 XY    0.000000   0.000000   0.000000   0.000000   0.000000
   18  S  1 XZ    0.000000   0.000000   0.000000  -0.015798   0.000000
   19  S  1 YZ    0.000000  -0.009935   0.000000   0.000000  -0.062487
   20  O  2  S    0.056405   0.000000   0.018721  -0.081475   0.000000
   21  O  2  S   -0.091341   0.000000  -0.032638   0.096885   0.000000
   22  O  2  S   -0.372945   0.000000  -0.174876   1.370633   0.000000
   23  O  2  X   -0.298674   0.000000  -0.102260  -0.049516   0.000000
   24  O  2  Y    0.000000  -0.401507   0.000000   0.000000  -0.020409
   25  O  2  Z    0.102085   0.000000  -0.385875  -0.033407   0.000000
   26  O  2  X   -0.260472   0.000000  -0.116822   0.245352   0.000000
   27  O  2  Y    0.000000  -0.429125   0.000000   0.000000  -0.041237
   28  O  2  Z    0.090301   0.000000  -0.415377  -0.082682   0.000000
   29  O  2 XX   -0.023678   0.000000  -0.006870   0.030040   0.000000
   30  O  2 YY    0.011605   0.000000   0.004254  -0.014920   0.000000
   31  O  2 ZZ    0.012073   0.000000   0.002615  -0.015120   0.000000
   32  O  2 XY    0.000000  -0.003317   0.000000   0.000000  -0.042451
   33  O  2 XZ    0.001254   0.000000  -0.002441  -0.003168   0.000000
   34  O  2 YZ    0.000000  -0.000906   0.000000   0.000000   0.000997
   35  O  3  S    0.056405   0.000000   0.018721   0.081475   0.000000
   36  O  3  S   -0.091341   0.000000  -0.032638  -0.096885   0.000000
   37  O  3  S   -0.372945   0.000000  -0.174876  -1.370633   0.000000
   38  O  3  X    0.298674   0.000000   0.102260  -0.049516   0.000000
   39  O  3  Y    0.000000  -0.401507   0.000000   0.000000  -0.020409
   40  O  3  Z    0.102085   0.000000  -0.385875   0.033407   0.000000
   41  O  3  X    0.260472   0.000000   0.116822   0.245352   0.000000
   42  O  3  Y    0.000000  -0.429125   0.000000   0.000000  -0.041237
   43  O  3  Z    0.090301   0.000000  -0.415377   0.082682   0.000000
   44  O  3 XX   -0.023678   0.000000  -0.006870  -0.030040   0.000000
   45  O  3 YY    0.011605   0.000000   0.004254   0.014920   0.000000
   46  O  3 ZZ    0.012073   0.000000   0.002615   0.015120   0.000000
   47  O  3 XY    0.000000   0.003317   0.000000   0.000000   0.042451
   48  O  3 XZ   -0.001254   0.000000   0.002441  -0.003168   0.000000
   49  O  3 YZ    0.000000  -0.000906   0.000000   0.000000   0.000997

                     21         22         23         24         25
                    0.3492     0.4301     0.5114     0.5114     0.6228
                     A1         A1         B2         A1         A1  
    1  S  1  S   -0.007399  -0.074778   0.000000   0.002455   0.100971
    2  S  1  S   -0.013889  -0.134832   0.000000   0.003073   0.478502
    3  S  1  S   -0.094434  -0.963957   0.000000   0.030466   1.715213
    4  S  1  S    0.467541   2.930453   0.000000  -0.050926   0.210463
    5  S  1  X    0.000000   0.000000   0.000000   0.000000   0.000000
    6  S  1  Y    0.000000   0.000000   0.018618   0.000000   0.000000
    7  S  1  Z    0.287989  -0.049831   0.000000   0.018957  -0.016087
    8  S  1  X    0.000000   0.000000   0.000000   0.000000   0.000000
    9  S  1  Y    0.000000   0.000000  -0.071180   0.000000   0.000000
   10  S  1  Z   -1.087931   0.225520   0.000000  -0.073035   0.101260
   11  S  1  X    0.000000   0.000000   0.000000   0.000000   0.000000
   12  S  1  Y    0.000000   0.000000   0.098982   0.000000   0.000000
   13  S  1  Z    1.204533  -0.137647   0.000000   0.100606   0.029953
   14  S  1 XX    0.159007   0.617864   0.000000  -0.011698   0.215054
   15  S  1 YY   -0.028114  -0.337694   0.000000  -0.841587  -0.108070
   16  S  1 ZZ   -0.130893  -0.280169   0.000000   0.853285  -0.106984
   17  S  1 XY    0.000000   0.000000   0.000000   0.000000   0.000000
   18  S  1 XZ    0.000000   0.000000   0.000000   0.000000   0.000000
   19  S  1 YZ    0.000000   0.000000   0.978925   0.000000   0.000000
   20  O  2  S    0.004500   0.027269   0.000000   0.000081   0.053973
   21  O  2  S    0.006400  -0.005095   0.000000  -0.003660  -0.098586
   22  O  2  S   -0.248455  -1.131319   0.000000   0.014033  -0.624790
   23  O  2  X    0.053267   0.273032   0.000000  -0.013593   0.171209
   24  O  2  Y    0.000000   0.000000  -0.053140   0.000000   0.000000
   25  O  2  Z   -0.020809  -0.013069   0.000000  -0.052595   0.007602
   26  O  2  X   -0.126993  -0.778317   0.000000   0.011494  -1.150317
   27  O  2  Y    0.000000   0.000000  -0.013542   0.000000   0.000000
   28  O  2  Z   -0.021392   0.096950   0.000000  -0.015137   0.068477
   29  O  2 XX   -0.021344  -0.077572   0.000000   0.001017   0.008033
   30  O  2 YY    0.009952   0.038810   0.000000  -0.050404  -0.003595
   31  O  2 ZZ    0.011391   0.038761   0.000000   0.049388  -0.004438
   32  O  2 XY    0.000000   0.000000   0.002287   0.000000   0.000000
   33  O  2 XZ   -0.037715   0.024142   0.000000   0.002093   0.003215
   34  O  2 YZ    0.000000   0.000000   0.057617   0.000000   0.000000
   35  O  3  S    0.004500   0.027269   0.000000   0.000081   0.053973
   36  O  3  S    0.006400  -0.005095   0.000000  -0.003660  -0.098586
   37  O  3  S   -0.248455  -1.131319   0.000000   0.014033  -0.624790
   38  O  3  X   -0.053267  -0.273032   0.000000   0.013593  -0.171209
   39  O  3  Y    0.000000   0.000000  -0.053140   0.000000   0.000000
   40  O  3  Z   -0.020809  -0.013069   0.000000  -0.052595   0.007602
   41  O  3  X    0.126993   0.778317   0.000000  -0.011494   1.150317
   42  O  3  Y    0.000000   0.000000  -0.013542   0.000000   0.000000
   43  O  3  Z   -0.021392   0.096950   0.000000  -0.015137   0.068477
   44  O  3 XX   -0.021344  -0.077572   0.000000   0.001017   0.008033
   45  O  3 YY    0.009952   0.038810   0.000000  -0.050404  -0.003595
   46  O  3 ZZ    0.011391   0.038761   0.000000   0.049388  -0.004438
   47  O  3 XY    0.000000   0.000000  -0.002287   0.000000   0.000000
   48  O  3 XZ    0.037715  -0.024142   0.000000  -0.002093  -0.003215
   49  O  3 YZ    0.000000   0.000000   0.057617   0.000000   0.000000

                     26         27         28         29         30
                    0.6369     0.6734     0.6741     0.7916     0.7974
                     B1         A2         B1         B1         A2  
    1  S  1  S    0.000000   0.000000   0.000000   0.000000   0.000000
    2  S  1  S    0.000000   0.000000   0.000000   0.000000   0.000000
    3  S  1  S    0.000000   0.000000   0.000000   0.000000   0.000000
    4  S  1  S    0.000000   0.000000   0.000000   0.000000   0.000000
    5  S  1  X   -0.142182   0.000000   0.059350   0.115708   0.000000
    6  S  1  Y    0.000000   0.000000   0.000000   0.000000   0.000000
    7  S  1  Z    0.000000   0.000000   0.000000   0.000000   0.000000
    8  S  1  X    1.016402   0.000000  -0.276107  -0.503770   0.000000
    9  S  1  Y    0.000000   0.000000   0.000000   0.000000   0.000000
   10  S  1  Z    0.000000   0.000000   0.000000   0.000000   0.000000
   11  S  1  X   -0.180288   0.000000   0.071586   0.293618   0.000000
   12  S  1  Y    0.000000   0.000000   0.000000   0.000000   0.000000
   13  S  1  Z    0.000000   0.000000   0.000000   0.000000   0.000000
   14  S  1 XX    0.000000   0.000000   0.000000   0.000000   0.000000
   15  S  1 YY    0.000000   0.000000   0.000000   0.000000   0.000000
   16  S  1 ZZ    0.000000   0.000000   0.000000   0.000000   0.000000
   17  S  1 XY    0.000000   0.680417   0.000000   0.000000   0.839898
   18  S  1 XZ    0.257402   0.000000   0.680040   0.746727   0.000000
   19  S  1 YZ    0.000000   0.000000   0.000000   0.000000   0.000000
   20  O  2  S   -0.035225   0.000000   0.011312   0.011497   0.000000
   21  O  2  S   -0.042074   0.000000  -0.035969  -0.021099   0.000000
   22  O  2  S    0.589252   0.000000  -0.025797  -0.026062   0.000000
   23  O  2  X   -0.317487   0.000000  -0.007971  -0.022610   0.000000
   24  O  2  Y    0.000000  -0.381879   0.000000   0.000000   0.557135
   25  O  2  Z    0.063556   0.000000  -0.365103   0.562050   0.000000
   26  O  2  X    1.233796   0.000000  -0.098258  -0.222652   0.000000
   27  O  2  Y    0.000000   0.868643   0.000000   0.000000  -0.145008
   28  O  2  Z    0.005930   0.000000   0.860840  -0.186328   0.000000
   29  O  2 XX   -0.013045   0.000000   0.004586   0.013168   0.000000
   30  O  2 YY    0.005372   0.000000  -0.007178  -0.017372   0.000000
   31  O  2 ZZ    0.007674   0.000000   0.002592   0.004204   0.000000
   32  O  2 XY    0.000000  -0.033611   0.000000   0.000000  -0.072227
   33  O  2 XZ   -0.005070   0.000000  -0.036572  -0.067286   0.000000
   34  O  2 YZ    0.000000   0.005343   0.000000   0.000000   0.013588
   35  O  3  S    0.035225   0.000000  -0.011312  -0.011497   0.000000
   36  O  3  S    0.042074   0.000000   0.035969   0.021099   0.000000
   37  O  3  S   -0.589252   0.000000   0.025797   0.026062   0.000000
   38  O  3  X   -0.317487   0.000000  -0.007971  -0.022610   0.000000
   39  O  3  Y    0.000000   0.381879   0.000000   0.000000  -0.557135
   40  O  3  Z   -0.063556   0.000000   0.365103  -0.562050   0.000000
   41  O  3  X    1.233796   0.000000  -0.098258  -0.222652   0.000000
   42  O  3  Y    0.000000  -0.868643   0.000000   0.000000   0.145008
   43  O  3  Z   -0.005930   0.000000  -0.860840   0.186328   0.000000
   44  O  3 XX    0.013045   0.000000  -0.004586  -0.013168   0.000000
   45  O  3 YY   -0.005372   0.000000   0.007178   0.017372   0.000000
   46  O  3 ZZ   -0.007674   0.000000  -0.002592  -0.004204   0.000000
   47  O  3 XY    0.000000  -0.033611   0.000000   0.000000  -0.072227
   48  O  3 XZ   -0.005070   0.000000  -0.036572  -0.067286   0.000000
   49  O  3 YZ    0.000000  -0.005343   0.000000   0.000000  -0.013588

                     31         32         33         34         35
                    0.8965     0.8999     1.1588     1.5112     1.8309
                     A1         B2         B1         A1         B1  
    1  S  1  S    0.006992   0.000000   0.000000   0.026967   0.000000
    2  S  1  S    0.033361   0.000000   0.000000   0.041901   0.000000
    3  S  1  S    0.121022   0.000000   0.000000   0.371099   0.000000
    4  S  1  S   -0.019849   0.000000   0.000000   2.492621   0.000000
    5  S  1  X    0.000000   0.000000  -0.360015   0.000000  -0.032115
    6  S  1  Y    0.000000  -0.036728   0.000000   0.000000   0.000000
    7  S  1  Z   -0.038189   0.000000   0.000000  -0.018443   0.000000
    8  S  1  X    0.000000   0.000000   1.402056   0.000000   0.442220
    9  S  1  Y    0.000000   0.068253   0.000000   0.000000   0.000000
   10  S  1  Z    0.077163   0.000000   0.000000   0.118920   0.000000
   11  S  1  X    0.000000   0.000000  -0.087896   0.000000   1.978759
   12  S  1  Y    0.000000  -1.060998   0.000000   0.000000   0.000000
   13  S  1  Z   -1.056302   0.000000   0.000000   0.211051   0.000000
   14  S  1 XX    0.073684   0.000000   0.000000   0.860008   0.000000
   15  S  1 YY    0.010911   0.000000   0.000000  -0.437688   0.000000
   16  S  1 ZZ   -0.084595   0.000000   0.000000  -0.422320   0.000000
   17  S  1 XY    0.000000   0.000000   0.000000   0.000000   0.000000
   18  S  1 XZ    0.000000   0.000000   0.299891   0.000000   0.063069
   19  S  1 YZ    0.000000  -0.055254   0.000000   0.000000   0.000000
   20  O  2  S   -0.002169   0.000000  -0.044254   0.007173  -0.015033
   21  O  2  S    0.031658   0.000000   0.352484   0.890125  -1.333658
   22  O  2  S   -0.048282   0.000000   0.306862  -2.380898   2.775006
   23  O  2  X   -0.087369   0.000000   0.651587  -0.414486   0.142143
   24  O  2  Y    0.000000  -0.626663   0.000000   0.000000   0.000000
   25  O  2  Z   -0.617886   0.000000   0.038489   0.097745   0.023535
   26  O  2  X    0.044169   0.000000   0.034838  -0.677678   0.313637
   27  O  2  Y    0.000000   1.132023   0.000000   0.000000   0.000000
   28  O  2  Z    1.126797   0.000000   0.014459  -0.051022  -0.114371
   29  O  2 XX   -0.002838   0.000000  -0.109449   0.164067  -0.177801
   30  O  2 YY    0.000802   0.000000   0.047477  -0.085342   0.090431
   31  O  2 ZZ    0.002035   0.000000   0.061972  -0.078724   0.087370
   32  O  2 XY    0.000000  -0.049288   0.000000   0.000000   0.000000
   33  O  2 XZ   -0.047351   0.000000  -0.034946  -0.016623   0.068279
   34  O  2 YZ    0.000000   0.000790   0.000000   0.000000   0.000000
   35  O  3  S   -0.002169   0.000000   0.044254   0.007173   0.015033
   36  O  3  S    0.031658   0.000000  -0.352484   0.890125   1.333658
   37  O  3  S   -0.048282   0.000000  -0.306862  -2.380898  -2.775006
   38  O  3  X    0.087369   0.000000   0.651587   0.414486   0.142143
   39  O  3  Y    0.000000  -0.626663   0.000000   0.000000   0.000000
   40  O  3  Z   -0.617886   0.000000  -0.038489   0.097745  -0.023535
   41  O  3  X   -0.044169   0.000000   0.034838   0.677678   0.313637
   42  O  3  Y    0.000000   1.132023   0.000000   0.000000   0.000000
   43  O  3  Z    1.126797   0.000000  -0.014459  -0.051022   0.114371
   44  O  3 XX   -0.002838   0.000000   0.109449   0.164067   0.177801
   45  O  3 YY    0.000802   0.000000  -0.047477  -0.085342  -0.090431
   46  O  3 ZZ    0.002035   0.000000  -0.061972  -0.078724  -0.087370
   47  O  3 XY    0.000000   0.049288   0.000000   0.000000   0.000000
   48  O  3 XZ    0.047351   0.000000  -0.034946   0.016623   0.068279
   49  O  3 YZ    0.000000   0.000790   0.000000   0.000000   0.000000

                     36         37         38         39         40
                    1.9915     1.9915     2.0549     2.1061     2.1138
                     A2         B1         A1         B2         A1  
    1  S  1  S    0.000000   0.000000   0.014567   0.000000  -0.004253
    2  S  1  S    0.000000   0.000000  -0.198777   0.000000   0.076670
    3  S  1  S    0.000000   0.000000  -0.079580   0.000000   0.047836
    4  S  1  S    0.000000   0.000000  -0.117252   0.000000   0.034644
    5  S  1  X    0.000000  -0.000543   0.000000   0.000000   0.000000
    6  S  1  Y    0.000000   0.000000   0.000000  -0.019182   0.000000
    7  S  1  Z    0.000000   0.000000  -0.069373   0.000000   0.013699
    8  S  1  X    0.000000   0.000444   0.000000   0.000000   0.000000
    9  S  1  Y    0.000000   0.000000   0.000000   0.098752   0.000000
   10  S  1  Z    0.000000   0.000000   0.318869   0.000000  -0.056582
   11  S  1  X    0.000000   0.015313   0.000000   0.000000   0.000000
   12  S  1  Y    0.000000   0.000000   0.000000   0.001764   0.000000
   13  S  1  Z    0.000000   0.000000  -0.010807   0.000000  -0.006399
   14  S  1 XX    0.000000   0.000000   0.905008   0.000000  -0.320645
   15  S  1 YY    0.000000   0.000000  -0.415432   0.000000   0.396535
   16  S  1 ZZ    0.000000   0.000000  -0.489576   0.000000  -0.075890
   17  S  1 XY    0.016483   0.000000   0.000000   0.000000   0.000000
   18  S  1 XZ    0.000000  -0.016120   0.000000   0.000000   0.000000
   19  S  1 YZ    0.000000   0.000000   0.000000  -0.262157   0.000000
   20  O  2  S    0.000000  -0.000132   0.003640   0.000000  -0.000694
   21  O  2  S    0.000000  -0.008557  -0.847990   0.000000   0.297325
   22  O  2  S    0.000000   0.016676   0.497969   0.000000  -0.177386
   23  O  2  X    0.000000   0.001390  -0.471406   0.000000   0.165697
   24  O  2  Y   -0.003175   0.000000   0.000000   0.017238   0.000000
   25  O  2  Z    0.000000   0.003532   0.112502   0.000000  -0.029517
   26  O  2  X    0.000000  -0.001644   0.333755   0.000000  -0.124522
   27  O  2  Y    0.008350   0.000000   0.000000  -0.034460   0.000000
   28  O  2  Z    0.000000  -0.009131  -0.122423   0.000000   0.033520
   29  O  2 XX    0.000000  -0.015312   0.035633   0.000000  -0.030014
   30  O  2 YY    0.000000   0.613529  -0.218303   0.000000  -0.573698
   31  O  2 ZZ    0.000000  -0.598216   0.182671   0.000000   0.603711
   32  O  2 XY    0.103636   0.000000   0.000000  -0.074835   0.000000
   33  O  2 XZ    0.000000  -0.102363  -0.384614   0.000000   0.130031
   34  O  2 YZ    0.699592   0.000000   0.000000   0.714703   0.000000
   35  O  3  S    0.000000   0.000132   0.003640   0.000000  -0.000694
   36  O  3  S    0.000000   0.008557  -0.847990   0.000000   0.297325
   37  O  3  S    0.000000  -0.016676   0.497969   0.000000  -0.177386
   38  O  3  X    0.000000   0.001390   0.471406   0.000000  -0.165697
   39  O  3  Y    0.003175   0.000000   0.000000   0.017238   0.000000
   40  O  3  Z    0.000000  -0.003532   0.112502   0.000000  -0.029517
   41  O  3  X    0.000000  -0.001644  -0.333755   0.000000   0.124522
   42  O  3  Y   -0.008350   0.000000   0.000000  -0.034460   0.000000
   43  O  3  Z    0.000000   0.009131  -0.122423   0.000000   0.033520
   44  O  3 XX    0.000000   0.015312   0.035633   0.000000  -0.030014
   45  O  3 YY    0.000000  -0.613529  -0.218303   0.000000  -0.573698
   46  O  3 ZZ    0.000000   0.598216   0.182671   0.000000   0.603711
   47  O  3 XY    0.103636   0.000000   0.000000   0.074835   0.000000
   48  O  3 XZ    0.000000  -0.102363   0.384614   0.000000  -0.130031
   49  O  3 YZ   -0.699592   0.000000   0.000000   0.714703   0.000000

                     41         42         43         44         45
                    2.2390     2.3378     2.7981     2.8095     2.8815
                     B2         A1         B1         A2         A1  
    1  S  1  S    0.000000   0.000175   0.000000   0.000000  -0.094451
    2  S  1  S    0.000000   0.211794   0.000000   0.000000  -0.552050
    3  S  1  S    0.000000   0.282099   0.000000   0.000000  -1.938358
    4  S  1  S    0.000000   0.231819   0.000000   0.000000  -1.795028
    5  S  1  X    0.000000   0.000000   0.015109   0.000000   0.000000
    6  S  1  Y    0.102313   0.000000   0.000000   0.000000   0.000000
    7  S  1  Z    0.000000  -0.079512   0.000000   0.000000   0.010250
    8  S  1  X    0.000000   0.000000  -0.333711   0.000000   0.000000
    9  S  1  Y   -0.531755   0.000000   0.000000   0.000000   0.000000
   10  S  1  Z    0.000000   0.454630   0.000000   0.000000  -0.163075
   11  S  1  X    0.000000   0.000000  -0.135598   0.000000   0.000000
   12  S  1  Y   -0.119183   0.000000   0.000000   0.000000   0.000000
   13  S  1  Z    0.000000   0.153271   0.000000   0.000000  -0.024565
   14  S  1 XX    0.000000  -0.631277   0.000000   0.000000  -1.525545
   15  S  1 YY    0.000000   0.247065   0.000000   0.000000   0.761575
   16  S  1 ZZ    0.000000   0.384212   0.000000   0.000000   0.763970
   17  S  1 XY    0.000000   0.000000   0.000000   1.048417   0.000000
   18  S  1 XZ    0.000000   0.000000   1.007934   0.000000   0.000000
   19  S  1 YZ   -0.117015   0.000000   0.000000   0.000000   0.000000
   20  O  2  S    0.000000   0.005865   0.009273   0.000000  -0.037122
   21  O  2  S    0.000000   0.651009   0.217680   0.000000  -0.145738
   22  O  2  S    0.000000  -0.568518  -0.411318   0.000000   2.098647
   23  O  2  X    0.000000   0.305252   0.028248   0.000000   0.594083
   24  O  2  Y   -0.084134   0.000000   0.000000   0.113881   0.000000
   25  O  2  Z    0.000000   0.026444   0.103893   0.000000  -0.074434
   26  O  2  X    0.000000  -0.384033  -0.165903   0.000000   1.041347
   27  O  2  Y    0.276411   0.000000   0.000000   0.353290   0.000000
   28  O  2  Z    0.000000  -0.239716   0.364018   0.000000  -0.135293
   29  O  2 XX    0.000000  -0.275343  -0.011823   0.000000   0.914343
   30  O  2 YY    0.000000   0.142822   0.109319   0.000000  -0.472701
   31  O  2 ZZ    0.000000   0.132521  -0.097496   0.000000  -0.441642
   32  O  2 XY    0.758258   0.000000   0.000000   0.892679   0.000000
   33  O  2 XZ    0.000000  -0.615011   0.883063   0.000000  -0.254133
   34  O  2 YZ    0.071319   0.000000   0.000000  -0.121656   0.000000
   35  O  3  S    0.000000   0.005865  -0.009273   0.000000  -0.037122
   36  O  3  S    0.000000   0.651009  -0.217680   0.000000  -0.145738
   37  O  3  S    0.000000  -0.568518   0.411318   0.000000   2.098647
   38  O  3  X    0.000000  -0.305252   0.028248   0.000000  -0.594083
   39  O  3  Y   -0.084134   0.000000   0.000000  -0.113881   0.000000
   40  O  3  Z    0.000000   0.026444  -0.103893   0.000000  -0.074434
   41  O  3  X    0.000000   0.384033  -0.165903   0.000000  -1.041347
   42  O  3  Y    0.276411   0.000000   0.000000  -0.353290   0.000000
   43  O  3  Z    0.000000  -0.239716  -0.364018   0.000000  -0.135293
   44  O  3 XX    0.000000  -0.275343   0.011823   0.000000   0.914343
   45  O  3 YY    0.000000   0.142822  -0.109319   0.000000  -0.472701
   46  O  3 ZZ    0.000000   0.132521   0.097496   0.000000  -0.441642
   47  O  3 XY   -0.758258   0.000000   0.000000   0.892679   0.000000
   48  O  3 XZ    0.000000   0.615011   0.883063   0.000000   0.254133
   49  O  3 YZ    0.071319   0.000000   0.000000   0.121656   0.000000

                     46
                    2.9748
                     B1  
    1  S  1  S    0.000000
    2  S  1  S    0.000000
    3  S  1  S    0.000000
    4  S  1  S    0.000000
    5  S  1  X   -0.179189
    6  S  1  Y    0.000000
    7  S  1  Z    0.000000
    8  S  1  X    2.236293
    9  S  1  Y    0.000000
   10  S  1  Z    0.000000
   11  S  1  X    0.456233
   12  S  1  Y    0.000000
   13  S  1  Z    0.000000
   14  S  1 XX    0.000000
   15  S  1 YY    0.000000
   16  S  1 ZZ    0.000000
   17  S  1 XY    0.000000
   18  S  1 XZ    0.339599
   19  S  1 YZ    0.000000
   20  O  2  S   -0.048590
   21  O  2  S   -0.487050
   22  O  2  S    1.939838
   23  O  2  X    0.329852
   24  O  2  Y    0.000000
   25  O  2  Z    0.010195
   26  O  2  X    1.006189
   27  O  2  Y    0.000000
   28  O  2  Z   -0.027580
   29  O  2 XX    0.935144
   30  O  2 YY   -0.450974
   31  O  2 ZZ   -0.484170
   32  O  2 XY    0.000000
   33  O  2 XZ    0.028400
   34  O  2 YZ    0.000000
   35  O  3  S    0.048590
   36  O  3  S    0.487050
   37  O  3  S   -1.939838
   38  O  3  X    0.329852
   39  O  3  Y    0.000000
   40  O  3  Z   -0.010195
   41  O  3  X    1.006189
   42  O  3  Y    0.000000
   43  O  3  Z    0.027580
   44  O  3 XX   -0.935144
   45  O  3 YY    0.450974
   46  O  3 ZZ    0.484170
   47  O  3 XY    0.000000
   48  O  3 XZ    0.028400
   49  O  3 YZ    0.000000
 ...... END OF RHF CALCULATION ......
 STEP CPU TIME =     5.01 TOTAL CPU TIME =        5.3 (    0.1 MIN)
 TOTAL WALL CLOCK TIME=        5.4 SECONDS, CPU UTILIZATION IS  99.81%

     ---------------------------------------------------------------------
     PROPERTIES FOR THE PBE      DFT FUNCTIONAL (RHF  TYPE) DENSITY MATRIX
     ---------------------------------------------------------------------

          -----------------
          ENERGY COMPONENTS
          -----------------

         WAVEFUNCTION NORMALIZATION =       1.0000000000

                ONE ELECTRON ENERGY =   -1006.6579741333
                TWO ELECTRON ENERGY =     331.7700985398
           NUCLEAR REPULSION ENERGY =     127.0564430476
                                      ------------------
                       TOTAL ENERGY =    -547.8314325459

 ELECTRON-ELECTRON POTENTIAL ENERGY =     331.7700985398
  NUCLEUS-ELECTRON POTENTIAL ENERGY =   -1557.1017014127
   NUCLEUS-NUCLEUS POTENTIAL ENERGY =     127.0564430476
                                      ------------------
             TOTAL POTENTIAL ENERGY =   -1098.2751598254
               TOTAL KINETIC ENERGY =     550.4437272794
                 VIRIAL RATIO (V/T) =       1.9952542020

          ---------------------------------------
          MULLIKEN AND LOWDIN POPULATION ANALYSES
          ---------------------------------------

     ATOMIC MULLIKEN POPULATION IN EACH MOLECULAR ORBITAL

                      1          2          3          4          5

                  2.000000   2.000000   2.000000   2.000000   2.000000

    1             2.000121   0.000041   0.002329   2.004856   1.996904
    2            -0.000061   0.999980   0.998836  -0.002428   0.001548
    3            -0.000061   0.999980   0.998836  -0.002428   0.001548

                      6          7          8          9         10

                  2.000000   2.000000   2.000000   2.000000   2.000000

    1             1.999801   1.999781   0.769727   0.540379   0.319453
    2             0.000100   0.000110   0.615136   0.729811   0.840273
    3             0.000100   0.000110   0.615136   0.729811   0.840273

                     11         12         13         14         15

                  2.000000   2.000000   2.000000   2.000000   2.000000

    1             0.838940   0.833660   0.237339   0.250298   0.247548
    2             0.580530   0.583170   0.881330   0.874851   0.876226
    3             0.580530   0.583170   0.881330   0.874851   0.876226

                     16

                  2.000000

    1             1.838351
    2             0.080824
    3             0.080824

               ----- POPULATIONS IN EACH AO -----
                             MULLIKEN      LOWDIN
              1  S  1  S      2.00028     1.99573
              2  S  1  S      2.01176     1.92836
              3  S  1  S      0.81033     0.48497
              4  S  1  S      1.53669     0.78551
              5  S  1  X      1.99769     1.96074
              6  S  1  Y      1.99633     1.95481
              7  S  1  Z      1.99647     1.95617
              8  S  1  X      0.74294     0.63291
              9  S  1  Y      0.63242     0.56969
             10  S  1  Z      0.66190     0.60234
             11  S  1  X      0.03303     0.24655
             12  S  1  Y      0.20777     0.29336
             13  S  1  Z      0.21773     0.30630
             14  S  1 XX      0.13477     0.50126
             15  S  1 YY      0.39606     0.36076
             16  S  1 ZZ      0.25030     0.36079
             17  S  1 XY      0.25084     0.31430
             18  S  1 XZ      0.00222     0.31439
             19  S  1 YZ      0.00000     0.00217
             20  O  2  S      1.99847     1.97955
             21  O  2  S      0.83131     0.64834
             22  O  2  S      0.83053     0.49202
             23  O  2  X      1.13731     1.10561
             24  O  2  Y      0.92725     0.86713
             25  O  2  Z      0.95278     0.89476
             26  O  2  X      0.31228     0.50372
             27  O  2  Y      0.51581     0.54944
             28  O  2  Z      0.51873     0.55448
             29  O  2 XX      0.00288     0.22012
             30  O  2 YY      0.00830     0.18333
             31  O  2 ZZ      0.01239     0.18289
             32  O  2 XY      0.01217     0.01621
             33  O  2 XZ      0.00003     0.01679
             34  O  2 YZ      0.00000     0.00006
             35  O  3  S      1.99847     1.97955
             36  O  3  S      0.83131     0.64834
             37  O  3  S      0.83053     0.49202
             38  O  3  X      1.13731     1.10561
             39  O  3  Y      0.92725     0.86713
             40  O  3  Z      0.95278     0.89476
             41  O  3  X      0.31228     0.50372
             42  O  3  Y      0.51581     0.54944
             43  O  3  Z      0.51873     0.55448
             44  O  3 XX      0.00288     0.22012
             45  O  3 YY      0.00830     0.18333
             46  O  3 ZZ      0.01239     0.18289
             47  O  3 XY      0.01217     0.01621
             48  O  3 XZ      0.00003     0.01679
             49  O  3 YZ      0.00000     0.00006

          ----- MULLIKEN ATOMIC OVERLAP POPULATIONS -----
          (OFF-DIAGONAL ELEMENTS NEED TO BE MULTIPLIED BY 2)

             1           2           3

    1   16.1935993
    2   -0.1570363   8.1044937
    3   -0.1570363   0.1127792   8.1044937

          TOTAL MULLIKEN AND LOWDIN ATOMIC POPULATIONS
       ATOM         MULL.POP.    CHARGE          LOW.POP.     CHARGE
    1 S            15.879527    0.120473        15.571104    0.428896
    2 O             8.060237   -0.060237         8.214448   -0.214448
    3 O             8.060237   -0.060237         8.214448   -0.214448

          MULLIKEN SPHERICAL HARMONIC POPULATIONS
       ATOM           S       P       D      F      G      H      I    TOTAL
    1 S             6.36    8.49    1.03   0.00   0.00   0.00   0.00   15.88
    2 O             3.66    4.36    0.04   0.00   0.00   0.00   0.00    8.06
    3 O             3.66    4.36    0.04   0.00   0.00   0.00   0.00    8.06

          -------------------------------
          BOND ORDER AND VALENCE ANALYSIS     BOND ORDER THRESHOLD=0.050
          -------------------------------

                   BOND                       BOND                       BOND
  ATOM PAIR DIST  ORDER      ATOM PAIR DIST  ORDER      ATOM PAIR DIST  ORDER
    1   2  1.200  2.008        1   3  1.200  2.008        2   3  2.391  0.147

                       TOTAL       BONDED        FREE
      ATOM            VALENCE     VALENCE     VALENCE
    1 S                 4.015       4.015       0.000
    2 O                 2.154       2.154       0.000
    3 O                 2.154       2.154       0.000

          ---------------------
          ELECTROSTATIC MOMENTS
          ---------------------

 POINT   1           X           Y           Z (BOHR)    CHARGE
                 0.000000    0.000000    0.000000        0.00 (A.U.)
         DX          DY          DZ         /D/  (DEBYE)
     0.000000    0.000000    0.459257    0.459257
 ...... END OF PROPERTY EVALUATION ......
 STEP CPU TIME =     0.02 TOTAL CPU TIME =        5.4 (    0.1 MIN)
 TOTAL WALL CLOCK TIME=        5.4 SECONDS, CPU UTILIZATION IS  99.63%
               580000  WORDS OF DYNAMIC MEMORY USED
 EXECUTION OF GAMESS TERMINATED NORMALLY Thu Feb 26 00:13:42 2015
 DDI: 263624 bytes (0.3 MB / 0 MWords) used by master data server.

 ----------------------------------------
 CPU timing information for all processes
 ========================================
 0: 5.190 + 0.198 = 5.389
 ----------------------------------------
 ddikick.x: exited gracefully.
----- accounting info -----
Files used on the master node dftfe.crc.nd.edu were:
-rw-r--r-- 1 pmehta1 campus   37475 Feb 26 00:13 /tmp/gamess.dat
-rw-r--r-- 1 pmehta1 campus     142 Feb 26 00:13 /tmp/gamess.F05
-rw-r--r-- 1 pmehta1 campus 2160288 Feb 26 00:13 /tmp/gamess.F08
-rw-r--r-- 1 pmehta1 campus 1220440 Feb 26 00:13 /tmp/gamess.F10
Thu Feb 26 00:13:45 EST 2015
0.239u 0.181s 0:08.82 4.6%	0+0k 0+112io 0pf+0w
