----- GAMESS execution script 'rungms' -----
This job is running on host dftfe.crc.nd.edu
under operating system Linux at Thu Feb 26 00:20:08 EST 2015
Available scratch disk space (Kbyte units) at beginning of the job is
Filesystem     1K-blocks     Used Available Use% Mounted on
/dev/sda2      147771864 22816292 117449140  17% /
GAMESS temporary binary files will be written to /tmp
GAMESS supplementary output files will be written to /tmp
Copying input file gamess.inp to your run's scratch directory...

 Distributed Data Interface kickoff program.
 Initiating 1 compute processes on 1 nodes to run the following command:
 /opt/crc/gamess/2012R1/gamess/gamess.00.x gamess 

          ******************************************************
          *         GAMESS VERSION =  1 MAY 2012 (R1)          *
          *             FROM IOWA STATE UNIVERSITY             *
          * M.W.SCHMIDT, K.K.BALDRIDGE, J.A.BOATZ, S.T.ELBERT, *
          *   M.S.GORDON, J.H.JENSEN, S.KOSEKI, N.MATSUNAGA,   *
          *          K.A.NGUYEN, S.J.SU, T.L.WINDUS,           *
          *       TOGETHER WITH M.DUPUIS, J.A.MONTGOMERY       *
          *         J.COMPUT.CHEM.  14, 1347-1363(1993)        *
          **************** 64 BIT LINUX VERSION ****************

  SINCE 1993, STUDENTS AND POSTDOCS WORKING AT IOWA STATE UNIVERSITY
  AND ALSO IN THEIR VARIOUS JOBS AFTER LEAVING ISU HAVE MADE IMPORTANT
  CONTRIBUTIONS TO THE CODE:
     IVANA ADAMOVIC, CHRISTINE AIKENS, YURI ALEXEEV, POOJA ARORA,
     ANDREY ASADCHEV, ROB BELL, PRADIPTA BANDYOPADHYAY, JONATHAN BENTZ,
     BRETT BODE, GALINA CHABAN, WEI CHEN, CHEOL HO CHOI, PAUL DAY,
     ALBERT DEFUSCO, TIM DUDLEY, DMITRI FEDOROV, GRAHAM FLETCHER,
     MARK FREITAG, KURT GLAESEMANN, DAN KEMP, GRANT MERRILL,
     NORIYUKI MINEZAWA, JONATHAN MULLIN, TAKESHI NAGATA,
     SEAN NEDD, HEATHER NETZLOFF, BOSILJKA NJEGIC, RYAN OLSON, MIKE PAK,
     JIM SHOEMAKER, LYUDMILA SLIPCHENKO, SAROM SOK, JIE SONG,
     TETSUYA TAKETSUGU, SIMON WEBB, SOOHAENG YOO, FEDERICO ZAHARIEV

  ADDITIONAL CODE HAS BEEN PROVIDED BY COLLABORATORS IN OTHER GROUPS:
     IOWA STATE UNIVERSITY:
          JOE IVANIC, LAIMUTIS BYTAUTAS, KLAUS RUEDENBERG
     UNIVERSITY OF TOKYO: KIMIHIKO HIRAO, TAKAHITO NAKAJIMA,
          TAKAO TSUNEDA, MUNEAKI KAMIYA, SUSUMU YANAGISAWA,
          KIYOSHI YAGI, MAHITO CHIBA, SEIKEN TOKURA, NAOAKI KAWAKAMI
     UNIVERSITY OF AARHUS: FRANK JENSEN
     UNIVERSITY OF IOWA: VISVALDAS KAIRYS, HUI LI
     NATIONAL INST. OF STANDARDS AND TECHNOLOGY: WALT STEVENS, DAVID GARMER
     UNIVERSITY OF PISA: BENEDETTA MENNUCCI, JACOPO TOMASI
     UNIVERSITY OF MEMPHIS: HENRY KURTZ, PRAKASHAN KORAMBATH
     UNIVERSITY OF ALBERTA: TOBY ZENG, MARIUSZ KLOBUKOWSKI
     UNIVERSITY OF NEW ENGLAND: MARK SPACKMAN
     MIE UNIVERSITY: HIROAKI UMEDA
     MICHIGAN STATE UNIVERSITY:
          KAROL KOWALSKI, MARTA WLOCH, JEFFREY GOUR, JESSE LUTZ, PIOTR PIECUCH
     UNIVERSITY OF SILESIA: MONIKA MUSIAL, STANISLAW KUCHARSKI
     FACULTES UNIVERSITAIRES NOTRE-DAME DE LA PAIX:
          OLIVIER QUINET, BENOIT CHAMPAGNE
     UNIVERSITY OF CALIFORNIA - SANTA BARBARA: BERNARD KIRTMAN
     INSTITUTE FOR MOLECULAR SCIENCE:
          KAZUYA ISHIMURA, MICHIO KATOUDA, AND SHIGERU NAGASE
     UNIVERSITY OF NOTRE DAME: DAN CHIPMAN
     KYUSHU UNIVERSITY:
          HARUYUKI NAKANO,
          FENG LONG GU, JACEK KORCHOWIEC, MARCIN MAKOWSKI, AND YURIKO AOKI,
          HIROTOSHI MORI AND EISAKU MIYOSHI
     PENNSYLVANIA STATE UNIVERSITY:
          TZVETELIN IORDANOV, CHET SWALINA, JONATHAN SKONE,
          SHARON HAMMES-SCHIFFER
     WASEDA UNIVERSITY:
          MASATO KOBAYASHI, TOMOKO AKAMA, TSUGUKI TOUMA,
          TAKESHI YOSHIKAWA, YASUHIRO IKABATA, HIROMI NAKAI
     UNIVERSITY OF NEBRASKA:
          PEIFENG SU, DEJUN SI, NANDUN THELLAMUREGE, YALI WANG, HUI LI
     UNIVERSITY OF ZURICH:
          ROBERTO PEVERATI, KIM BALDRIDGE
     N. COPERNICUS UNIVERSITY AND JACKSON STATE UNIVERSITY:
          MARIA BARYSZ

 EXECUTION OF GAMESS BEGUN Thu Feb 26 00:20:09 2015

            ECHO OF THE FIRST FEW INPUT CARDS -
 INPUT CARD> $BASIS GBASIS=PC1 $END                                                         
 INPUT CARD> $CONTRL COORD=ZMT ISPHER=1 RUNTYP=ENERGY DFTTYP=PBE $END                       
 INPUT CARD>                                                                                
 INPUT CARD> $DATA                                                                          
 INPUT CARD>Title                                                                           
 INPUT CARD>Cnv 2                                                                           
 INPUT CARD>                                                                                
 INPUT CARD>S                                                                               
 INPUT CARD>O 1 1.80                                                                        
 INPUT CARD>O 1 1.80 2 90.0                                                                 
 INPUT CARD> $END                                                                           
    1000000 WORDS OF MEMORY AVAILABLE

     BASIS OPTIONS
     -------------
     GBASIS=PC1          IGAUSS=       0      POLAR=NONE    
     NDFUNC=       0     NFFUNC=       0     DIFFSP=       F
     NPFUNC=       0      DIFFS=       F     BASNAM=        


     RUN TITLE
     ---------
 Title                                                                           

 THE POINT GROUP OF THE MOLECULE IS CNV     
 THE ORDER OF THE PRINCIPAL AXIS IS     2

 YOUR FULLY SUBSTITUTED Z-MATRIX IS
 S   
 O      1   1.8000000
 O      1   1.8000000  2   90.0000

 THE MOMENTS OF INERTIA ARE (AMU-ANGSTROM**2)
 IXX=    25.905   IYY=    51.824   IZZ=    77.728

 ATOM      ATOMIC                      COORDINATES (BOHR)
           CHARGE         X                   Y                   Z
 S          16.0     0.0000000000        0.0000000000       -1.2029479907
 O           8.0    -2.4052285089        0.0000000000        1.2022805182
 O           8.0     2.4052285089        0.0000000000        1.2022805182

          INTERNUCLEAR DISTANCES (ANGS.)
          ------------------------------

                1 S          2 O          3 O     

   1 S       0.0000000    1.8000000 *  1.8000000 *
   2 O       1.8000000 *  0.0000000    2.5455844 *
   3 O       1.8000000 *  2.5455844 *  0.0000000  

  * ... LESS THAN  3.000


     ATOMIC BASIS SET
     ----------------
 THE CONTRACTED PRIMITIVE FUNCTIONS HAVE BEEN UNNORMALIZED
 THE CONTRACTED BASIS FUNCTIONS ARE NOW NORMALIZED TO UNITY

  SHELL TYPE  PRIMITIVE        EXPONENT          CONTRACTION COEFFICIENT(S)

 S         

      1   S       1         55510.0000000    0.000587229760
      1   S       2          8326.7000000    0.004532413947
      1   S       3          1895.6000000    0.023265261648
      1   S       4           536.7700000    0.089696133027
      1   S       5           174.6700000    0.254098332277
      1   S       6            62.5780000    0.438665087637
      1   S       7            23.5730000    0.314547135094
      1   S       8             5.8908000    0.032727897102

      2   S       9          8326.7000000   -0.000019755715
      2   S      10          1895.6000000   -0.000043822381
      2   S      11           536.7700000   -0.001730264906
      2   S      12           174.6700000   -0.009381263460
      2   S      13            62.5780000   -0.064050766303
      2   S      14            23.5730000   -0.082478179196
      2   S      15             5.8908000    0.478342956889
      2   S      16             2.1852000    0.626896670208

      3   S      17          1895.6000000    0.000016227260
      3   S      18           536.7700000    0.000191135619
      3   S      19           174.6700000    0.001952069674
      3   S      20            62.5780000    0.010578701087
      3   S      21            23.5730000    0.022164934551
      3   S      22             5.8908000   -0.184968323118
      3   S      23             2.1852000   -0.480920750976
      3   S      24             0.4528200    1.243822243872

      4   S      25             0.1620200    1.000000000000

      5   P      26           395.4500000    0.004642761329
      5   P      27            92.8340000    0.036023396489
      5   P      28            29.2660000    0.149058869978
      5   P      29            10.5950000    0.360033266263
      5   P      30             4.0272000    0.455756476221
      5   P      31             1.5484000    0.206167664178

      6   P      32            92.8340000    0.000169901442
      6   P      33            29.2660000   -0.002541839934
      6   P      34            10.5950000   -0.007867614595
      6   P      35             4.0272000   -0.037231009184
      6   P      36             1.5484000    0.161417246830
      6   P      37             0.4613400    0.902230419976

      7   P      38             0.1313100    1.000000000000

      8   D      39             0.5500000    1.000000000000

 O         

     15   S      40          2306.7000000    0.005424388755
     15   S      41           347.1500000    0.040474749465
     15   S      42            78.8900000    0.180219634554
     15   S      43            21.8760000    0.462370311787
     15   S      44             6.6646000    0.454888396263

     16   S      45           347.1500000   -0.000655003786
     16   S      46            78.8900000   -0.005362052952
     16   S      47            21.8760000   -0.074902158894
     16   S      48             6.6646000   -0.181442579655
     16   S      49             1.0669000    1.102006874042

     17   S      50             0.3070000    1.000000000000

     18   P      51            17.0220000    0.068979967443
     18   P      52             3.6838000    0.351985516325
     18   P      53             0.9923400    0.724036547822

     19   P      54             0.2448700    1.000000000000

     20   D      55             1.0000000    1.000000000000

 TOTAL NUMBER OF BASIS SET SHELLS             =   20
 NUMBER OF CARTESIAN GAUSSIAN BASIS FUNCTIONS =   49
 NOTE: THIS RUN WILL RESTRICT THE MO VARIATION SPACE TO SPHERICAL HARMONICS.
 THE NUMBER OF ORBITALS KEPT IN THE VARIATIONAL SPACE WILL BE PRINTED LATER.
 NUMBER OF ELECTRONS                          =   32
 CHARGE OF MOLECULE                           =    0
 SPIN MULTIPLICITY                            =    1
 NUMBER OF OCCUPIED ORBITALS (ALPHA)          =   16
 NUMBER OF OCCUPIED ORBITALS (BETA )          =   16
 TOTAL NUMBER OF ATOMS                        =    3
 THE NUCLEAR REPULSION ENERGY IS       88.5651135412

     LEBEDEV GRID-BASED DFT OPTIONS
     ------------------------------
     DFTTYP=PBE     
     NRAD  =      96     NLEB  =     302
     NRAD0 =      24     NLEB0 =     110
     SWOFF =    5.00E-03 (PURE SCF -> DFT)
     SWITCH=    3.00E-04 (COARSE -> TIGHT GRID)
     THRESH=    0.00E+00 GTHRE=    1.00E+00

 GRIMME'S EMPIRICAL DISPERSION CORRECTION= F

     $CONTRL OPTIONS
     ---------------
 SCFTYP=RHF          RUNTYP=ENERGY       EXETYP=RUN     
 MPLEVL=       0     CITYP =NONE         CCTYP =NONE         VBTYP =NONE    
 DFTTYP=PBE          TDDFT =NONE    
 MULT  =       1     ICHARG=       0     NZVAR =       0     COORD =ZMT     
 PP    =NONE         RELWFN=NONE         LOCAL =NONE         NUMGRD=       F
 ISPHER=       1     NOSYM =       0     MAXIT =      30     UNITS =ANGS    
 PLTORB=       F     MOLPLT=       F     AIMPAC=       F     FRIEND=        
 NPRINT=       7     IREST =       0     GEOM  =INPUT   
 NORMF =       0     NORMP =       0     ITOL  =      20     ICUT  =       9
 INTTYP=BEST         GRDTYP=BEST         QMTTOL= 1.0E-06

     $SYSTEM OPTIONS
     ---------------
  REPLICATED MEMORY=     1000000 WORDS (ON EVERY NODE).
 DISTRIBUTED MEMDDI=           0 MILLION WORDS IN AGGREGATE,
 MEMDDI DISTRIBUTED OVER   1 PROCESSORS IS           0 WORDS/PROCESSOR.
 TOTAL MEMORY REQUESTED ON EACH PROCESSOR=     1000000 WORDS.
 TIMLIM=      525600.00 MINUTES, OR     365.0 DAYS.
 PARALL= F  BALTYP=  DLB     KDIAG=    0  COREFL= F
 MXSEQ2=     300 MXSEQ3=     150

          ----------------
          PROPERTIES INPUT
          ----------------

     MOMENTS            FIELD           POTENTIAL          DENSITY
 IEMOM =       1   IEFLD =       0   IEPOT =       0   IEDEN =       0
 WHERE =COMASS     WHERE =NUCLEI     WHERE =NUCLEI     WHERE =NUCLEI  
 OUTPUT=BOTH       OUTPUT=BOTH       OUTPUT=BOTH       OUTPUT=BOTH    
 IEMINT=       0   IEFINT=       0                     IEDINT=       0
                                                       MORB  =       0
          EXTRAPOLATION IN EFFECT
          DIIS IN EFFECT
 ORBITAL PRINTING OPTION: NPREO=     1    49     2     1

     -------------------------------
     INTEGRAL TRANSFORMATION OPTIONS
     -------------------------------
     NWORD  =            0
     CUTOFF = 1.0E-09     MPTRAN =       0
     DIRTRF =       F     AOINTS =DUP     

          ----------------------
          INTEGRAL INPUT OPTIONS
          ----------------------
 NOPK  =       1 NORDER=       0 SCHWRZ=       F

   --- ENCODED Z MATRIX ---
 COORD  TYPE   I   J   K   L   M   N
    1      1    3   1
    2      1    2   1
    3      2    2   1   3

 THE DETERMINANT OF THE G MATRIX IS 10**(    -4)

 THE DETERMINANT OF THE G MATRIX IS 10**(    -4)
 * * * WARNING * * *
 YOUR B MATRIX HAS A SMALL DETERMINANT.
 THIS SUGGESTS YOU MAY HAVE BADLY CHOSEN COORDINATES.

     ------------------------------------------
     THE POINT GROUP IS CNV, NAXIS= 2, ORDER= 4
     ------------------------------------------

 -- VARIATIONAL SPACE WILL BE RESTRICTED TO PURE SPHERICAL HARMONICS ONLY --
 AFTER EXCLUDING CONTAMINANT COMBINATIONS FROM THE CARTESIAN GAUSSIAN BASIS
 SET, THE NUMBER OF SPHERICAL HARMONICS KEPT IN THE VARIATION SPACE IS   46

     DIMENSIONS OF THE SYMMETRY SUBSPACES ARE
 A1  =   19     A2  =    5     B1  =   14     B2  =    8

 ..... DONE SETTING UP THE RUN .....
 STEP CPU TIME =     0.01 TOTAL CPU TIME =        0.0 (    0.0 MIN)
 TOTAL WALL CLOCK TIME=        0.0 SECONDS, CPU UTILIZATION IS  50.00%

          ********************
          1 ELECTRON INTEGRALS
          ********************
 ...... END OF ONE-ELECTRON INTEGRALS ......
 STEP CPU TIME =     0.00 TOTAL CPU TIME =        0.0 (    0.0 MIN)
 TOTAL WALL CLOCK TIME=        0.0 SECONDS, CPU UTILIZATION IS  33.33%

          -------------
          GUESS OPTIONS
          -------------
          GUESS =HUCKEL            NORB  =       0          NORDER=       0
          MIX   =       F          PRTMO =       F          PUNMO =       F
          TOLZ  = 1.0E-08          TOLE  = 1.0E-05
          SYMDEN=       F          PURIFY=       F

 INITIAL GUESS ORBITALS GENERATED BY HUCKEL   ROUTINE.
 HUCKEL GUESS REQUIRES     21583 WORDS.

 STATISTICS FOR GENERATION OF SYMMETRY ORBITAL -Q- MATRIX
 NUMBER OF CARTESIAN ATOMIC ORBITALS=         49
 NUMBER OF SPHERICAL CONTAMINANTS DROPPED=     3
 NUMBER OF LINEARLY DEPENDENT MOS DROPPED=     0
 TOTAL NUMBER OF MOS IN VARIATION SPACE=      46

 SYMMETRIES FOR INITIAL GUESS ORBITALS FOLLOW.   BOTH SET(S).
    16 ORBITALS ARE OCCUPIED (    7 CORE ORBITALS).
     8=?A1      9=?B1     10=?A1     11=B1      12=B2      13=A1      14=A2  
    15=B1      16=A1      17=B2      18=B1      19=A1      20=A1      21=A1  
    22=A1      23=A1      24=A1      25=A1      26=A1  
 ...... END OF INITIAL ORBITAL SELECTION ......
 STEP CPU TIME =     0.01 TOTAL CPU TIME =        0.0 (    0.0 MIN)
 TOTAL WALL CLOCK TIME=        0.0 SECONDS, CPU UTILIZATION IS  66.67%

                    ----------------------
                    AO INTEGRAL TECHNOLOGY
                    ----------------------
     S,P,L SHELL ROTATED AXIS INTEGRALS, REPROGRAMMED BY
        KAZUYA ISHIMURA (IMS) AND JOSE SIERRA (SYNSTAR).
     S,P,D,L SHELL ROTATED AXIS INTEGRALS PROGRAMMED BY
        KAZUYA ISHIMURA (INSTITUTE FOR MOLECULAR SCIENCE).
     S,P,D,F,G SHELL TO TOTAL QUARTET ANGULAR MOMENTUM SUM 5,
        ERIC PROGRAM BY GRAHAM FLETCHER (ELORET AND NASA ADVANCED
        SUPERCOMPUTING DIVISION, AMES RESEARCH CENTER).
     S,P,D,F,G,L SHELL GENERAL RYS QUADRATURE PROGRAMMED BY
        MICHEL DUPUIS (PACIFIC NORTHWEST NATIONAL LABORATORY).

          --------------------
          2 ELECTRON INTEGRALS
          --------------------

 THE -PK- OPTION IS OFF, THE INTEGRALS ARE NOT IN SUPERMATRIX FORM.
 STORING   15000 INTEGRALS/RECORD ON DISK, USING 12 BYTES/INTEGRAL.
 TWO ELECTRON INTEGRAL EVALUATION REQUIRES   90606 WORDS OF MEMORY.
 II,JST,KST,LST =  1  1  1  1 NREC =         1 INTLOC =    1
 II,JST,KST,LST =  2  1  1  1 NREC =         1 INTLOC =    2
 II,JST,KST,LST =  3  1  1  1 NREC =         1 INTLOC =    7
 II,JST,KST,LST =  4  1  1  1 NREC =         1 INTLOC =   22
 II,JST,KST,LST =  5  1  1  1 NREC =         1 INTLOC =   56
 II,JST,KST,LST =  6  1  1  1 NREC =         1 INTLOC =  125
 II,JST,KST,LST =  7  1  1  1 NREC =         1 INTLOC =  329
 II,JST,KST,LST =  8  1  1  1 NREC =         1 INTLOC =  776
 II,JST,KST,LST =  9  1  1  1 NREC =         1 INTLOC = 2864
 II,JST,KST,LST = 10  1  1  1 NREC =         1 INTLOC = 2864
 II,JST,KST,LST = 11  1  1  1 NREC =         1 INTLOC = 2864
 II,JST,KST,LST = 12  1  1  1 NREC =         1 INTLOC = 2864
 II,JST,KST,LST = 13  1  1  1 NREC =         1 INTLOC = 2864
 II,JST,KST,LST = 14  1  1  1 NREC =         1 INTLOC = 2864
 II,JST,KST,LST = 15  1  1  1 NREC =         1 INTLOC = 2864
 II,JST,KST,LST = 16  1  1  1 NREC =         1 INTLOC = 4865
 II,JST,KST,LST = 17  1  1  1 NREC =         1 INTLOC = 7975
 II,JST,KST,LST = 18  1  1  1 NREC =         1 INTLOC =12351
 II,JST,KST,LST = 19  1  1  1 NREC =         2 INTLOC =14757
 II,JST,KST,LST = 20  1  1  1 NREC =         5 INTLOC =  638
 TOTAL NUMBER OF NONZERO TWO-ELECTRON INTEGRALS =              174801
         12 INTEGRAL RECORDS WERE STORED ON DISK FILE  8.
  ...... END OF TWO-ELECTRON INTEGRALS .....
 STEP CPU TIME =     0.15 TOTAL CPU TIME =        0.2 (    0.0 MIN)
 TOTAL WALL CLOCK TIME=        0.2 SECONDS, CPU UTILIZATION IS  89.47%

          --------------------------
               R-PBE SCF CALCULATION
          --------------------------

     NUCLEAR ENERGY =        88.5651135412
     MAXIT =   30     NPUNCH=    2
     EXTRAP=T  DAMP=F  SHIFT=F  RSTRCT=F  DIIS=T  DEM=F  SOSCF=F
         DENSITY MATRIX CONVERGENCE THRESHOLD=  1.00E-05
     COARSE -> FINE DFT GRID SWITCH THRESHOLD=  3.00E-04 (SWITCH IN $DFT)
                   HF -> DFT SWITCH THRESHOLD=  5.00E-03 (SWOFF IN $DFT)
     MEMORY REQUIRED FOR RHF ITERS=    183108 WORDS.

 DFT CODE IS SWITCHING FROM THE FINE GRID NRAD= 96,  NLEB=  302
                      TO THE COARSE GRID NRAD0= 24, NLEB0=  110

     EXCHANGE FUNCTIONAL   =PBE       
     CORRELATION FUNCTIONAL=PBE       
     DFT THRESHOLD         =.460E-07
     GRID CHANGE THRESHOLD =.300E-03
 FOR AN EULER-MACLAURIN QUADRATURE USING  96 RADIAL POINTS:
 SMALLEST GAUSSIAN PRIMITIVE EXPONENT=        0.1313100000 OF TYPE -P-
 ON ATOM NUMBER   1 HAS RADIAL NORMALIZATION=  1.000000
  LARGEST GAUSSIAN PRIMITIVE EXPONENT=    55510.0000000000 OF TYPE -S-
 ON ATOM NUMBER   1 HAS RADIAL NORMALIZATION=  0.999999
 DFT IS SWITCHED OFF, PERFORMING PURE SCF UNTIL SWOFF THRESHOLD IS REACHED.

 ITER EX DEM     TOTAL ENERGY        E CHANGE  DENSITY CHANGE    DIIS ERROR
   1  0  0     -545.8008744942  -545.8008744942   0.655524210   1.014266050
   2  1  0     -545.9496058502    -0.1487313560   0.764355260   0.612873868
   3  2  0     -545.5615083468     0.3880975034   1.004457804   0.605754896
   4  3  0     -544.0020253668     1.5594829801   1.263242615   1.199128492
   5  0  0     -543.2888523730     0.7131729938   0.784401981   0.912787608
          * * *   INITIATING DIIS PROCEDURE   * * *
   6  1  0     -546.7966361893    -3.5077838163   0.318732468   0.135418078
   7  2  0     -546.7786465477     0.0179896416   0.144674884   0.204377696
   8  3  0     -546.8918886559    -0.1132421082   0.027536273   0.032281481
   9  4  0     -546.8967068625    -0.0048182066   0.018247857   0.019368592
  10  5  0     -546.8983489696    -0.0016421070   0.010199975   0.009262029
  11  6  0     -546.8988782019    -0.0005292323   0.008582198   0.003259633
  12  7  0     -546.8990305032    -0.0001523013   0.004942229   0.001395013
 CONVERGED TO SWOFF, SO DFT CALCULATION IS NOW SWITCHED ON.
          * * *   INITIATING DIIS PROCEDURE   * * *
  13  8  0     -548.0813306899    -1.1823001868   0.428935696   0.093024553
  14  9  0     -548.0406280943     0.0407025957   0.384889058   0.194047500
  15 10  0     -548.0125461920     0.0280819023   0.136153001   0.256759475
  16 11  0     -548.1382027601    -0.1256565681   0.025574040   0.016909303
  17 12  0     -548.1393921350    -0.0011893749   0.001925633   0.002973113
  18 13  0     -548.1394135782    -0.0000214432   0.000609264   0.000688066
  19 14  0     -548.1394147299    -0.0000011517   0.000058327   0.000052335
 DFT CODE IS SWITCHING BACK TO THE FINE GRID
          * * *   INITIATING DIIS PROCEDURE   * * *
  20 15  0     -548.1430448484    -0.0036301185   0.011842302   0.015173081
  21 16  0     -548.1432210632    -0.0001762148   0.027656599   0.008154100
  22 17  0     -548.1418957140     0.0013253491   0.020292560   0.026392383
  23 18  0     -548.1433685788    -0.0014728648   0.000788199   0.000329909
  24 19  0     -548.1433691153    -0.0000005365   0.000297515   0.000251418
  25 20  0     -548.1433692551    -0.0000001398   0.000022701   0.000031923
  26 21  0     -548.1433692576    -0.0000000024   0.000002832   0.000004908
  27 22  0     -548.1433692576     0.0000000000   0.000000596   0.000000323

          -----------------
          DENSITY CONVERGED
          -----------------
     TIME TO FORM FOCK OPERATORS=       4.3 SECONDS (       0.2 SEC/ITER)
     TIME TO SOLVE SCF EQUATIONS=       0.0 SECONDS (       0.0 SEC/ITER)

 FINAL R-PBE ENERGY IS     -548.1433692576 AFTER  27 ITERATIONS
 DFT EXCHANGE + CORRELATION ENERGY =       -42.1967317973
 TOTAL ELECTRON NUMBER             =        31.9999653339

          ------------
          EIGENVECTORS
          ------------

                      1          2          3          4          5
                  -88.2195   -18.8151   -18.8151    -7.8424    -5.8630
                     A1         A1         B1         A1         B1  
    1  S  1  S    1.002978  -0.000094   0.000000  -0.274108   0.000000
    2  S  1  S   -0.010253  -0.001304   0.000000   1.039729   0.000000
    3  S  1  S    0.001818  -0.002596   0.000000   0.040888   0.000000
    4  S  1  S   -0.001069   0.008206   0.000000  -0.013484   0.000000
    5  S  1  X    0.000000   0.000000   0.000122   0.000000   0.996849
    6  S  1  Y    0.000000   0.000000   0.000000   0.000000   0.000000
    7  S  1  Z    0.000049  -0.000129   0.000000   0.006458   0.000000
    8  S  1  X    0.000000   0.000000  -0.000747   0.000000   0.009043
    9  S  1  Y    0.000000   0.000000   0.000000   0.000000   0.000000
   10  S  1  Z    0.000023   0.000652   0.000000   0.000505   0.000000
   11  S  1  X    0.000000   0.000000  -0.002943   0.000000  -0.000216
   12  S  1  Y    0.000000   0.000000   0.000000   0.000000   0.000000
   13  S  1  Z   -0.000148   0.004458   0.000000  -0.001282   0.000000
   14  S  1 XX   -0.000006   0.000559   0.000000   0.000084   0.000000
   15  S  1 YY    0.000024  -0.001231   0.000000   0.000041   0.000000
   16  S  1 ZZ   -0.000018   0.000672   0.000000  -0.000125   0.000000
   17  S  1 XY    0.000000   0.000000   0.000000   0.000000   0.000000
   18  S  1 XZ    0.000000   0.000000  -0.001418   0.000000   0.000262
   19  S  1 YZ    0.000000   0.000000   0.000000   0.000000   0.000000
   20  O  2  S   -0.000003   0.703267   0.703222  -0.000001   0.000035
   21  O  2  S   -0.000034   0.025252   0.024893  -0.000229   0.000056
   22  O  2  S    0.000171  -0.011410  -0.009737   0.001433  -0.000052
   23  O  2  X    0.000006   0.000474   0.000649  -0.000046   0.000007
   24  O  2  Y    0.000000   0.000000   0.000000   0.000000   0.000000
   25  O  2  Z   -0.000008  -0.000625  -0.000629   0.000023  -0.000004
   26  O  2  X    0.000028  -0.002173  -0.001603   0.000107  -0.000054
   27  O  2  Y    0.000000   0.000000   0.000000   0.000000   0.000000
   28  O  2  Z   -0.000006   0.001986   0.001654   0.000101   0.000019
   29  O  2 XX   -0.000010  -0.000141  -0.000104  -0.000139  -0.000039
   30  O  2 YY    0.000028   0.000172   0.000226   0.000337   0.000061
   31  O  2 ZZ   -0.000018  -0.000030  -0.000122  -0.000198  -0.000022
   32  O  2 XY    0.000000   0.000000   0.000000   0.000000   0.000000
   33  O  2 XZ    0.000047   0.000361   0.000252   0.000573   0.000102
   34  O  2 YZ    0.000000   0.000000   0.000000   0.000000   0.000000
   35  O  3  S   -0.000003   0.703267  -0.703222  -0.000001  -0.000035
   36  O  3  S   -0.000034   0.025252  -0.024893  -0.000229  -0.000056
   37  O  3  S    0.000171  -0.011410   0.009737   0.001433   0.000052
   38  O  3  X   -0.000006  -0.000474   0.000649   0.000046   0.000007
   39  O  3  Y    0.000000   0.000000   0.000000   0.000000   0.000000
   40  O  3  Z   -0.000008  -0.000625   0.000629   0.000023   0.000004
   41  O  3  X   -0.000028   0.002173  -0.001603  -0.000107  -0.000054
   42  O  3  Y    0.000000   0.000000   0.000000   0.000000   0.000000
   43  O  3  Z   -0.000006   0.001986  -0.001654   0.000101  -0.000019
   44  O  3 XX   -0.000010  -0.000141   0.000104  -0.000139   0.000039
   45  O  3 YY    0.000028   0.000172  -0.000226   0.000337  -0.000061
   46  O  3 ZZ   -0.000018  -0.000030   0.000122  -0.000198   0.000022
   47  O  3 XY    0.000000   0.000000   0.000000   0.000000   0.000000
   48  O  3 XZ   -0.000047  -0.000361   0.000252  -0.000573   0.000102
   49  O  3 YZ    0.000000   0.000000   0.000000   0.000000   0.000000

                      6          7          8          9         10
                   -5.8608    -5.8598    -0.9225    -0.8581    -0.6582
                     B2         A1         A1         B1         A1  
    1  S  1  S    0.000000   0.001710   0.041318   0.000000   0.075846
    2  S  1  S    0.000000  -0.006818  -0.120612   0.000000  -0.218122
    3  S  1  S    0.000000  -0.000653   0.244252   0.000000   0.470721
    4  S  1  S    0.000000   0.000183   0.181391   0.000000   0.458375
    5  S  1  X    0.000000   0.000000   0.000000   0.062353   0.000000
    6  S  1  Y    0.996889   0.000000   0.000000   0.000000   0.000000
    7  S  1  Z    0.000000   0.996876  -0.048261   0.000000   0.035921
    8  S  1  X    0.000000   0.000000   0.000000  -0.127544   0.000000
    9  S  1  Y    0.008947   0.000000   0.000000   0.000000   0.000000
   10  S  1  Z    0.000000   0.008880   0.097445   0.000000  -0.074992
   11  S  1  X    0.000000   0.000000   0.000000  -0.031542   0.000000
   12  S  1  Y   -0.000210   0.000000   0.000000   0.000000   0.000000
   13  S  1  Z    0.000000  -0.000176   0.013753   0.000000  -0.051674
   14  S  1 XX    0.000000  -0.000129   0.011332   0.000000  -0.002535
   15  S  1 YY    0.000000  -0.000135  -0.021335   0.000000   0.008584
   16  S  1 ZZ    0.000000   0.000264   0.010003   0.000000  -0.006049
   17  S  1 XY    0.000000   0.000000   0.000000   0.000000   0.000000
   18  S  1 XZ    0.000000   0.000000   0.000000  -0.044495   0.000000
   19  S  1 YZ    0.000205   0.000000   0.000000   0.000000   0.000000
   20  O  2  S    0.000000  -0.000038  -0.130884  -0.156380   0.089334
   21  O  2  S    0.000000  -0.000077   0.261555   0.317467  -0.185408
   22  O  2  S    0.000000   0.000085   0.324447   0.404539  -0.272655
   23  O  2  X    0.000000   0.000001   0.057641   0.035196   0.050703
   24  O  2  Y    0.000001   0.000000   0.000000   0.000000   0.000000
   25  O  2  Z    0.000000   0.000008  -0.054537  -0.049720  -0.060791
   26  O  2  X    0.000000   0.000037   0.027961   0.019452   0.020418
   27  O  2  Y   -0.000037   0.000000   0.000000   0.000000   0.000000
   28  O  2  Z    0.000000  -0.000112  -0.028721  -0.028071  -0.026395
   29  O  2 XX    0.000000   0.000017   0.001873  -0.001435   0.001233
   30  O  2 YY    0.000000  -0.000079  -0.004190  -0.001613  -0.003815
   31  O  2 ZZ    0.000000   0.000062   0.002317   0.003048   0.002582
   32  O  2 XY   -0.000016   0.000000   0.000000   0.000000   0.000000
   33  O  2 XZ    0.000000  -0.000140  -0.011113  -0.008986  -0.004261
   34  O  2 YZ    0.000014   0.000000   0.000000   0.000000   0.000000
   35  O  3  S    0.000000  -0.000038  -0.130884   0.156380   0.089334
   36  O  3  S    0.000000  -0.000077   0.261555  -0.317467  -0.185408
   37  O  3  S    0.000000   0.000085   0.324447  -0.404539  -0.272655
   38  O  3  X    0.000000  -0.000001  -0.057641   0.035196  -0.050703
   39  O  3  Y    0.000001   0.000000   0.000000   0.000000   0.000000
   40  O  3  Z    0.000000   0.000008  -0.054537   0.049720  -0.060791
   41  O  3  X    0.000000  -0.000037  -0.027961   0.019452  -0.020418
   42  O  3  Y   -0.000037   0.000000   0.000000   0.000000   0.000000
   43  O  3  Z    0.000000  -0.000112  -0.028721   0.028071  -0.026395
   44  O  3 XX    0.000000   0.000017   0.001873   0.001435   0.001233
   45  O  3 YY    0.000000  -0.000079  -0.004190   0.001613  -0.003815
   46  O  3 ZZ    0.000000   0.000062   0.002317  -0.003048   0.002582
   47  O  3 XY    0.000016   0.000000   0.000000   0.000000   0.000000
   48  O  3 XZ    0.000000   0.000140   0.011113  -0.008986   0.004261
   49  O  3 YZ    0.000014   0.000000   0.000000   0.000000   0.000000

                     11         12         13         14         15
                   -0.4096    -0.4009    -0.3795    -0.2889    -0.2857
                     B1         A1         B2         A1         A2  
    1  S  1  S    0.000000  -0.009265   0.000000   0.009113   0.000000
    2  S  1  S    0.000000   0.048655   0.000000  -0.033536   0.000000
    3  S  1  S    0.000000  -0.029565   0.000000   0.049738   0.000000
    4  S  1  S    0.000000  -0.225356   0.000000   0.147853   0.000000
    5  S  1  X   -0.193981   0.000000   0.000000   0.000000   0.000000
    6  S  1  Y    0.000000   0.000000  -0.217880   0.000000   0.000000
    7  S  1  Z    0.000000  -0.208224   0.000000   0.042868   0.000000
    8  S  1  X    0.457533   0.000000   0.000000   0.000000   0.000000
    9  S  1  Y    0.000000   0.000000   0.514451   0.000000   0.000000
   10  S  1  Z    0.000000   0.490970   0.000000  -0.104251   0.000000
   11  S  1  X    0.206758   0.000000   0.000000   0.000000   0.000000
   12  S  1  Y    0.000000   0.000000   0.342826   0.000000   0.000000
   13  S  1  Z    0.000000   0.234726   0.000000  -0.031478   0.000000
   14  S  1 XX    0.000000  -0.006030   0.000000  -0.080758   0.000000
   15  S  1 YY    0.000000  -0.020202   0.000000   0.021478   0.000000
   16  S  1 ZZ    0.000000   0.026231   0.000000   0.059280   0.000000
   17  S  1 XY    0.000000   0.000000   0.000000   0.000000  -0.063645
   18  S  1 XZ    0.041426   0.000000   0.000000   0.000000   0.000000
   19  S  1 YZ    0.000000   0.000000   0.030004   0.000000   0.000000
   20  O  2  S   -0.047331   0.037821   0.000000  -0.000401   0.000000
   21  O  2  S    0.098494  -0.077823   0.000000   0.001522   0.000000
   22  O  2  S    0.179404  -0.141898   0.000000  -0.007614   0.000000
   23  O  2  X   -0.166130   0.286700   0.000000   0.201923   0.000000
   24  O  2  Y    0.000000   0.000000   0.268439   0.000000   0.480549
   25  O  2  Z    0.292453  -0.114245   0.000000   0.411771   0.000000
   26  O  2  X   -0.106225   0.179092   0.000000   0.147476   0.000000
   27  O  2  Y    0.000000   0.000000   0.167747   0.000000   0.339108
   28  O  2  Z    0.174470  -0.076127   0.000000   0.302901   0.000000
   29  O  2 XX    0.001766   0.010054   0.000000   0.010229   0.000000
   30  O  2 YY    0.007297  -0.006511   0.000000   0.002500   0.000000
   31  O  2 ZZ   -0.009063  -0.003543   0.000000  -0.012729   0.000000
   32  O  2 XY    0.000000   0.000000   0.010203   0.000000   0.007403
   33  O  2 XZ    0.009877  -0.010090   0.000000   0.004430   0.000000
   34  O  2 YZ    0.000000   0.000000  -0.010230   0.000000  -0.010220
   35  O  3  S    0.047331   0.037821   0.000000  -0.000401   0.000000
   36  O  3  S   -0.098494  -0.077823   0.000000   0.001522   0.000000
   37  O  3  S   -0.179404  -0.141898   0.000000  -0.007614   0.000000
   38  O  3  X   -0.166130  -0.286700   0.000000  -0.201923   0.000000
   39  O  3  Y    0.000000   0.000000   0.268439   0.000000  -0.480549
   40  O  3  Z   -0.292453  -0.114245   0.000000   0.411771   0.000000
   41  O  3  X   -0.106225  -0.179092   0.000000  -0.147476   0.000000
   42  O  3  Y    0.000000   0.000000   0.167747   0.000000  -0.339108
   43  O  3  Z   -0.174470  -0.076127   0.000000   0.302901   0.000000
   44  O  3 XX   -0.001766   0.010054   0.000000   0.010229   0.000000
   45  O  3 YY   -0.007297  -0.006511   0.000000   0.002500   0.000000
   46  O  3 ZZ    0.009063  -0.003543   0.000000  -0.012729   0.000000
   47  O  3 XY    0.000000   0.000000  -0.010203   0.000000   0.007403
   48  O  3 XZ    0.009877   0.010090   0.000000  -0.004430   0.000000
   49  O  3 YZ    0.000000   0.000000  -0.010230   0.000000   0.010220

                     16         17         18         19         20
                   -0.2509    -0.2331    -0.1406    -0.0881     0.3262
                     B1         B2         B1         A1         A1  
    1  S  1  S    0.000000   0.000000   0.000000   0.031598  -0.000992
    2  S  1  S    0.000000   0.000000   0.000000  -0.086306  -0.076499
    3  S  1  S    0.000000   0.000000   0.000000   0.219038  -0.106250
    4  S  1  S    0.000000   0.000000   0.000000   0.424250   0.471239
    5  S  1  X   -0.016756   0.000000  -0.208522   0.000000   0.000000
    6  S  1  Y    0.000000  -0.189616   0.000000   0.000000   0.000000
    7  S  1  Z    0.000000   0.000000   0.000000  -0.191433   0.273228
    8  S  1  X    0.032682   0.000000   0.522530   0.000000   0.000000
    9  S  1  Y    0.000000   0.470468   0.000000   0.000000   0.000000
   10  S  1  Z    0.000000   0.000000   0.000000   0.484865  -1.053185
   11  S  1  X    0.140223   0.000000   0.605666   0.000000   0.000000
   12  S  1  Y    0.000000   0.351823   0.000000   0.000000   0.000000
   13  S  1  Z    0.000000   0.000000   0.000000   0.658291   1.450817
   14  S  1 XX    0.000000   0.000000   0.000000  -0.036033   0.075415
   15  S  1 YY    0.000000   0.000000   0.000000   0.120508   0.136676
   16  S  1 ZZ    0.000000   0.000000   0.000000  -0.084475  -0.212090
   17  S  1 XY    0.000000   0.000000   0.000000   0.000000   0.000000
   18  S  1 XZ   -0.057677   0.000000  -0.142494   0.000000   0.000000
   19  S  1 YZ    0.000000  -0.057854   0.000000   0.000000   0.000000
   20  O  2  S   -0.006269   0.000000  -0.026459   0.038961   0.014765
   21  O  2  S    0.011363   0.000000   0.044205  -0.065184   0.042160
   22  O  2  S    0.051221   0.000000   0.217167  -0.308136  -0.446851
   23  O  2  X    0.454261   0.000000   0.073732  -0.316305   0.146694
   24  O  2  Y    0.000000  -0.398234   0.000000   0.000000   0.000000
   25  O  2  Z    0.186782   0.000000  -0.352483   0.202643  -0.107824
   26  O  2  X    0.320891   0.000000   0.073847  -0.318875  -0.248491
   27  O  2  Y    0.000000  -0.304229   0.000000   0.000000   0.000000
   28  O  2  Z    0.115344   0.000000  -0.300356   0.181677   0.077467
   29  O  2 XX    0.008433   0.000000   0.001536   0.001221  -0.027036
   30  O  2 YY   -0.001093   0.000000   0.000075   0.001404   0.023336
   31  O  2 ZZ   -0.007340   0.000000  -0.001611  -0.002625   0.003700
   32  O  2 XY    0.000000  -0.002756   0.000000   0.000000   0.000000
   33  O  2 XZ   -0.007105   0.000000  -0.001576  -0.002128   0.028288
   34  O  2 YZ    0.000000   0.001940   0.000000   0.000000   0.000000
   35  O  3  S    0.006269   0.000000   0.026459   0.038961   0.014765
   36  O  3  S   -0.011363   0.000000  -0.044205  -0.065184   0.042160
   37  O  3  S   -0.051221   0.000000  -0.217167  -0.308136  -0.446851
   38  O  3  X    0.454261   0.000000   0.073732   0.316305  -0.146694
   39  O  3  Y    0.000000  -0.398234   0.000000   0.000000   0.000000
   40  O  3  Z   -0.186782   0.000000   0.352483   0.202643  -0.107824
   41  O  3  X    0.320891   0.000000   0.073847   0.318875   0.248491
   42  O  3  Y    0.000000  -0.304229   0.000000   0.000000   0.000000
   43  O  3  Z   -0.115344   0.000000   0.300356   0.181677   0.077467
   44  O  3 XX   -0.008433   0.000000  -0.001536   0.001221  -0.027036
   45  O  3 YY    0.001093   0.000000  -0.000075   0.001404   0.023336
   46  O  3 ZZ    0.007340   0.000000   0.001611  -0.002625   0.003700
   47  O  3 XY    0.000000   0.002756   0.000000   0.000000   0.000000
   48  O  3 XZ   -0.007105   0.000000  -0.001576   0.002128  -0.028288
   49  O  3 YZ    0.000000   0.001940   0.000000   0.000000   0.000000

                     21         22         23         24         25
                    0.3378     0.3621     0.4084     0.4732     0.4776
                     B1         B2         A1         A1         A2  
    1  S  1  S    0.000000   0.000000  -0.104430  -0.003692   0.000000
    2  S  1  S    0.000000   0.000000  -0.388653  -0.005716   0.000000
    3  S  1  S    0.000000   0.000000  -1.628637  -0.047762   0.000000
    4  S  1  S    0.000000   0.000000   1.995614   0.017283   0.000000
    5  S  1  X    0.284243   0.000000   0.000000   0.000000   0.000000
    6  S  1  Y    0.000000   0.293407   0.000000   0.000000   0.000000
    7  S  1  Z    0.000000   0.000000  -0.054535  -0.050166   0.000000
    8  S  1  X   -1.091923   0.000000   0.000000   0.000000   0.000000
    9  S  1  Y    0.000000  -1.133016   0.000000   0.000000   0.000000
   10  S  1  Z    0.000000   0.000000   0.191366   0.191706   0.000000
   11  S  1  X    1.362904   0.000000   0.000000   0.000000   0.000000
   12  S  1  Y    0.000000   1.221136   0.000000   0.000000   0.000000
   13  S  1  Z    0.000000   0.000000   0.111904  -0.186520   0.000000
   14  S  1 XX    0.000000   0.000000  -0.212893   0.759978   0.000000
   15  S  1 YY    0.000000   0.000000   0.433257  -0.100647   0.000000
   16  S  1 ZZ    0.000000   0.000000  -0.220365  -0.659331   0.000000
   17  S  1 XY    0.000000   0.000000   0.000000   0.000000   0.914740
   18  S  1 XZ   -0.118922   0.000000   0.000000   0.000000   0.000000
   19  S  1 YZ    0.000000  -0.198545   0.000000   0.000000   0.000000
   20  O  2  S   -0.008064   0.000000   0.018782  -0.001073   0.000000
   21  O  2  S   -0.032548   0.000000  -0.042740   0.003191   0.000000
   22  O  2  S    0.338333   0.000000  -0.243805   0.034500   0.000000
   23  O  2  X   -0.182927   0.000000   0.056508   0.220600   0.000000
   24  O  2  Y    0.000000  -0.047113   0.000000   0.000000   0.256949
   25  O  2  Z    0.077241   0.000000  -0.042625   0.276813   0.000000
   26  O  2  X    0.043601   0.000000  -0.156649  -0.106080   0.000000
   27  O  2  Y    0.000000  -0.110580   0.000000   0.000000  -0.150408
   28  O  2  Z   -0.156055   0.000000   0.137227  -0.140772   0.000000
   29  O  2 XX    0.003859   0.000000  -0.013396  -0.046548   0.000000
   30  O  2 YY   -0.017596   0.000000   0.027386  -0.003838   0.000000
   31  O  2 ZZ    0.013738   0.000000  -0.013990   0.050387   0.000000
   32  O  2 XY    0.000000  -0.012640   0.000000   0.000000  -0.022892
   33  O  2 XZ   -0.033662   0.000000   0.031928  -0.007406   0.000000
   34  O  2 YZ    0.000000   0.008942   0.000000   0.000000   0.038308
   35  O  3  S    0.008064   0.000000   0.018782  -0.001073   0.000000
   36  O  3  S    0.032548   0.000000  -0.042740   0.003191   0.000000
   37  O  3  S   -0.338333   0.000000  -0.243805   0.034500   0.000000
   38  O  3  X   -0.182927   0.000000  -0.056508  -0.220600   0.000000
   39  O  3  Y    0.000000  -0.047113   0.000000   0.000000  -0.256949
   40  O  3  Z   -0.077241   0.000000  -0.042625   0.276813   0.000000
   41  O  3  X    0.043601   0.000000   0.156649   0.106080   0.000000
   42  O  3  Y    0.000000  -0.110580   0.000000   0.000000   0.150408
   43  O  3  Z    0.156055   0.000000   0.137227  -0.140772   0.000000
   44  O  3 XX   -0.003859   0.000000  -0.013396  -0.046548   0.000000
   45  O  3 YY    0.017596   0.000000   0.027386  -0.003838   0.000000
   46  O  3 ZZ   -0.013738   0.000000  -0.013990   0.050387   0.000000
   47  O  3 XY    0.000000   0.012640   0.000000   0.000000  -0.022892
   48  O  3 XZ   -0.033662   0.000000  -0.031928   0.007406   0.000000
   49  O  3 YZ    0.000000   0.008942   0.000000   0.000000  -0.038308

                     26         27         28         29         30
                    0.4814     0.6414     0.6728     0.7743     0.8192
                     B2         A1         B1         A1         A2  
    1  S  1  S    0.000000  -0.050284   0.000000  -0.005600   0.000000
    2  S  1  S    0.000000  -0.275313   0.000000   0.021256   0.000000
    3  S  1  S    0.000000  -0.897100   0.000000  -0.040555   0.000000
    4  S  1  S    0.000000   1.532801   0.000000  -0.307169   0.000000
    5  S  1  X    0.000000   0.000000   0.011036   0.000000   0.000000
    6  S  1  Y    0.055362   0.000000   0.000000   0.000000   0.000000
    7  S  1  Z    0.000000   0.000641   0.000000   0.026605   0.000000
    8  S  1  X    0.000000   0.000000  -0.062885   0.000000   0.000000
    9  S  1  Y   -0.211437   0.000000   0.000000   0.000000   0.000000
   10  S  1  Z    0.000000  -0.033266   0.000000  -0.119093   0.000000
   11  S  1  X    0.000000   0.000000   0.501767   0.000000   0.000000
   12  S  1  Y    0.163157   0.000000   0.000000   0.000000   0.000000
   13  S  1  Z    0.000000   0.621105   0.000000  -0.334828   0.000000
   14  S  1 XX    0.000000   0.445201   0.000000   0.408394   0.000000
   15  S  1 YY    0.000000  -0.864731   0.000000   0.073225   0.000000
   16  S  1 ZZ    0.000000   0.419529   0.000000  -0.481619   0.000000
   17  S  1 XY    0.000000   0.000000   0.000000   0.000000   0.417350
   18  S  1 XZ    0.000000   0.000000   0.988759   0.000000   0.000000
   19  S  1 YZ    0.876528   0.000000   0.000000   0.000000   0.000000
   20  O  2  S    0.000000   0.056519  -0.052825  -0.010815   0.000000
   21  O  2  S    0.000000  -0.286302   0.276314   0.027862   0.000000
   22  O  2  S    0.000000  -0.236994   0.091289   0.117453   0.000000
   23  O  2  X    0.000000  -0.033832  -0.064684  -0.526521   0.000000
   24  O  2  Y   -0.291742   0.000000   0.000000   0.000000  -0.594385
   25  O  2  Z    0.000000  -0.105675  -0.082242  -0.184496   0.000000
   26  O  2  X    0.000000  -0.319763   0.356785   0.730451   0.000000
   27  O  2  Y    0.163572   0.000000   0.000000   0.000000   0.758865
   28  O  2  Z    0.000000   0.392492  -0.244721   0.159580   0.000000
   29  O  2 XX    0.000000   0.005874  -0.009946  -0.030049   0.000000
   30  O  2 YY    0.000000  -0.007577   0.019704  -0.002668   0.000000
   31  O  2 ZZ    0.000000   0.001703  -0.009758   0.032717   0.000000
   32  O  2 XY    0.036485   0.000000   0.000000   0.000000  -0.028094
   33  O  2 XZ    0.000000   0.006704   0.039236   0.024956   0.000000
   34  O  2 YZ   -0.021595   0.000000   0.000000   0.000000   0.024983
   35  O  3  S    0.000000   0.056519   0.052825  -0.010815   0.000000
   36  O  3  S    0.000000  -0.286302  -0.276314   0.027862   0.000000
   37  O  3  S    0.000000  -0.236994  -0.091289   0.117453   0.000000
   38  O  3  X    0.000000   0.033832  -0.064684   0.526521   0.000000
   39  O  3  Y   -0.291742   0.000000   0.000000   0.000000   0.594385
   40  O  3  Z    0.000000  -0.105675   0.082242  -0.184496   0.000000
   41  O  3  X    0.000000   0.319763   0.356785  -0.730451   0.000000
   42  O  3  Y    0.163572   0.000000   0.000000   0.000000  -0.758865
   43  O  3  Z    0.000000   0.392492   0.244721   0.159580   0.000000
   44  O  3 XX    0.000000   0.005874   0.009946  -0.030049   0.000000
   45  O  3 YY    0.000000  -0.007577  -0.019704  -0.002668   0.000000
   46  O  3 ZZ    0.000000   0.001703   0.009758   0.032717   0.000000
   47  O  3 XY   -0.036485   0.000000   0.000000   0.000000  -0.028094
   48  O  3 XZ    0.000000  -0.006704   0.039236  -0.024956   0.000000
   49  O  3 YZ   -0.021595   0.000000   0.000000   0.000000  -0.024983

                     31         32         33         34         35
                    0.8226     0.8263     0.8421     0.9193     1.5377
                     B2         B1         A1         B1         B1  
    1  S  1  S    0.000000   0.000000   0.032919   0.000000   0.000000
    2  S  1  S    0.000000   0.000000   0.100822   0.000000   0.000000
    3  S  1  S    0.000000   0.000000   0.502325   0.000000   0.000000
    4  S  1  S    0.000000   0.000000  -0.105790   0.000000   0.000000
    5  S  1  X    0.000000   0.070183   0.000000  -0.048576  -0.026167
    6  S  1  Y   -0.028051   0.000000   0.000000   0.000000   0.000000
    7  S  1  Z    0.000000   0.000000  -0.083107   0.000000   0.000000
    8  S  1  X    0.000000  -0.359408   0.000000   0.272388   0.120823
    9  S  1  Y    0.148881   0.000000   0.000000   0.000000   0.000000
   10  S  1  Z    0.000000   0.000000   0.443400   0.000000   0.000000
   11  S  1  X    0.000000  -0.066310   0.000000  -0.607188   0.630687
   12  S  1  Y   -0.512468   0.000000   0.000000   0.000000   0.000000
   13  S  1  Z    0.000000   0.000000  -0.339829   0.000000   0.000000
   14  S  1 XX    0.000000   0.000000   0.125371   0.000000   0.000000
   15  S  1 YY    0.000000   0.000000   0.158312   0.000000   0.000000
   16  S  1 ZZ    0.000000   0.000000  -0.283683   0.000000   0.000000
   17  S  1 XY    0.000000   0.000000   0.000000   0.000000   0.000000
   18  S  1 XZ    0.000000   0.080984   0.000000  -0.233421   0.391861
   19  S  1 YZ   -0.453265   0.000000   0.000000   0.000000   0.000000
   20  O  2  S    0.000000   0.017242   0.003438   0.001452   0.018218
   21  O  2  S    0.000000  -0.158684  -0.053725   0.101806  -1.105932
   22  O  2  S    0.000000   0.077491   0.120261  -0.250209   1.405055
   23  O  2  X    0.000000   0.221472   0.249954  -0.574401  -0.129616
   24  O  2  Y   -0.575080   0.000000   0.000000   0.000000   0.000000
   25  O  2  Z    0.000000  -0.585355  -0.531125  -0.238504   0.071181
   26  O  2  X    0.000000  -0.330136  -0.270164   0.743272   0.391794
   27  O  2  Y    0.802097   0.000000   0.000000   0.000000   0.000000
   28  O  2  Z    0.000000   0.768068   0.708501   0.449760  -0.354712
   29  O  2 XX    0.000000   0.006483  -0.015827  -0.048529  -0.078952
   30  O  2 YY    0.000000  -0.015557  -0.023499   0.019734   0.141651
   31  O  2 ZZ    0.000000   0.009074   0.039326   0.028795  -0.062698
   32  O  2 XY   -0.029815   0.000000   0.000000   0.000000   0.000000
   33  O  2 XZ    0.000000  -0.023142  -0.044190  -0.012505   0.157531
   34  O  2 YZ    0.032580   0.000000   0.000000   0.000000   0.000000
   35  O  3  S    0.000000  -0.017242   0.003438  -0.001452  -0.018218
   36  O  3  S    0.000000   0.158684  -0.053725  -0.101806   1.105932
   37  O  3  S    0.000000  -0.077491   0.120261   0.250209  -1.405055
   38  O  3  X    0.000000   0.221472  -0.249954  -0.574401  -0.129616
   39  O  3  Y   -0.575080   0.000000   0.000000   0.000000   0.000000
   40  O  3  Z    0.000000   0.585355  -0.531125   0.238504  -0.071181
   41  O  3  X    0.000000  -0.330136   0.270164   0.743272   0.391794
   42  O  3  Y    0.802097   0.000000   0.000000   0.000000   0.000000
   43  O  3  Z    0.000000  -0.768068   0.708501  -0.449760   0.354712
   44  O  3 XX    0.000000  -0.006483  -0.015827   0.048529   0.078952
   45  O  3 YY    0.000000   0.015557  -0.023499  -0.019734  -0.141651
   46  O  3 ZZ    0.000000  -0.009074   0.039326  -0.028795   0.062698
   47  O  3 XY    0.029815   0.000000   0.000000   0.000000   0.000000
   48  O  3 XZ    0.000000  -0.023142   0.044190  -0.012505   0.157531
   49  O  3 YZ    0.032580   0.000000   0.000000   0.000000   0.000000

                     36         37         38         39         40
                    1.6076     2.0994     2.1029     2.1049     2.1074
                     A1         B1         B2         A2         A1  
    1  S  1  S   -0.035289   0.000000   0.000000   0.000000   0.003196
    2  S  1  S   -0.331869   0.000000   0.000000   0.000000   0.015788
    3  S  1  S   -0.798701   0.000000   0.000000   0.000000   0.054357
    4  S  1  S    1.913785   0.000000   0.000000   0.000000  -0.097234
    5  S  1  X    0.000000  -0.002953   0.000000   0.000000   0.000000
    6  S  1  Y    0.000000   0.000000  -0.001978   0.000000   0.000000
    7  S  1  Z   -0.022037   0.000000   0.000000   0.000000  -0.007162
    8  S  1  X    0.000000  -0.010167   0.000000   0.000000   0.000000
    9  S  1  Y    0.000000   0.000000  -0.000700   0.000000   0.000000
   10  S  1  Z    0.066719   0.000000   0.000000   0.000000   0.025844
   11  S  1  X    0.000000   0.122333   0.000000   0.000000   0.000000
   12  S  1  Y    0.000000   0.000000   0.036517   0.000000   0.000000
   13  S  1  Z    0.980900   0.000000   0.000000   0.000000  -0.067792
   14  S  1 XX    0.176523   0.000000   0.000000   0.000000   0.012879
   15  S  1 YY   -0.370077   0.000000   0.000000   0.000000  -0.033484
   16  S  1 ZZ    0.193554   0.000000   0.000000   0.000000   0.020606
   17  S  1 XY    0.000000   0.000000   0.000000   0.056680   0.000000
   18  S  1 XZ    0.000000   0.002540   0.000000   0.000000   0.000000
   19  S  1 YZ    0.000000   0.000000   0.011842   0.000000   0.000000
   20  O  2  S   -0.005825  -0.001044   0.000000   0.000000   0.000936
   21  O  2  S    1.158518  -0.038726   0.000000   0.000000  -0.049479
   22  O  2  S   -1.765601   0.077683   0.000000   0.000000   0.076200
   23  O  2  X    0.022783   0.021508   0.000000   0.000000  -0.019097
   24  O  2  Y    0.000000   0.000000   0.015981  -0.020781   0.000000
   25  O  2  Z   -0.064441   0.015774   0.000000   0.000000  -0.003948
   26  O  2  X   -0.443971  -0.019971   0.000000   0.000000   0.043418
   27  O  2  Y    0.000000   0.000000  -0.027947   0.031590   0.000000
   28  O  2  Z    0.407478  -0.042610   0.000000   0.000000  -0.001629
   29  O  2 XX    0.049482  -0.209425   0.000000   0.000000  -0.365866
   30  O  2 YY   -0.059322  -0.424409   0.000000   0.000000   0.641292
   31  O  2 ZZ    0.009841   0.633835   0.000000   0.000000  -0.275425
   32  O  2 XY    0.000000   0.000000   0.399365   0.665952   0.000000
   33  O  2 XZ   -0.189706   0.290618   0.000000   0.000000  -0.292521
   34  O  2 YZ    0.000000   0.000000   0.583695   0.238418   0.000000
   35  O  3  S   -0.005825   0.001044   0.000000   0.000000   0.000936
   36  O  3  S    1.158518   0.038726   0.000000   0.000000  -0.049479
   37  O  3  S   -1.765601  -0.077683   0.000000   0.000000   0.076200
   38  O  3  X   -0.022783   0.021508   0.000000   0.000000   0.019097
   39  O  3  Y    0.000000   0.000000   0.015981   0.020781   0.000000
   40  O  3  Z   -0.064441  -0.015774   0.000000   0.000000  -0.003948
   41  O  3  X    0.443971  -0.019971   0.000000   0.000000  -0.043418
   42  O  3  Y    0.000000   0.000000  -0.027947  -0.031590   0.000000
   43  O  3  Z    0.407478   0.042610   0.000000   0.000000  -0.001629
   44  O  3 XX    0.049482   0.209425   0.000000   0.000000  -0.365866
   45  O  3 YY   -0.059322   0.424409   0.000000   0.000000   0.641292
   46  O  3 ZZ    0.009841  -0.633835   0.000000   0.000000  -0.275425
   47  O  3 XY    0.000000   0.000000  -0.399365   0.665952   0.000000
   48  O  3 XZ    0.189706   0.290618   0.000000   0.000000   0.292521
   49  O  3 YZ    0.000000   0.000000   0.583695  -0.238418   0.000000

                     41         42         43         44         45
                    2.1138     2.1328     2.1483     2.1819     2.3949
                     A2         B1         B2         A1         A1  
    1  S  1  S    0.000000   0.000000   0.000000  -0.005516   0.004011
    2  S  1  S    0.000000   0.000000   0.000000  -0.016303  -0.173351
    3  S  1  S    0.000000   0.000000   0.000000  -0.081741  -0.172392
    4  S  1  S    0.000000   0.000000   0.000000   0.067528   1.016898
    5  S  1  X    0.000000  -0.000957   0.000000   0.000000   0.000000
    6  S  1  Y    0.000000   0.000000   0.012663   0.000000   0.000000
    7  S  1  Z    0.000000   0.000000   0.000000   0.005785  -0.104827
    8  S  1  X    0.000000   0.036019   0.000000   0.000000   0.000000
    9  S  1  Y    0.000000   0.000000  -0.008460   0.000000   0.000000
   10  S  1  Z    0.000000   0.000000   0.000000  -0.056007   0.379082
   11  S  1  X    0.000000  -0.105705   0.000000   0.000000   0.000000
   12  S  1  Y    0.000000   0.000000  -0.151385   0.000000   0.000000
   13  S  1  Z    0.000000   0.000000   0.000000   0.154244   0.433361
   14  S  1 XX    0.000000   0.000000   0.000000  -0.232620   0.143461
   15  S  1 YY    0.000000   0.000000   0.000000   0.012633  -0.367776
   16  S  1 ZZ    0.000000   0.000000   0.000000   0.219987   0.224315
   17  S  1 XY   -0.180867   0.000000   0.000000   0.000000   0.000000
   18  S  1 XZ    0.000000  -0.003851   0.000000   0.000000   0.000000
   19  S  1 YZ    0.000000   0.000000  -0.202099   0.000000   0.000000
   20  O  2  S    0.000000   0.001521   0.000000   0.002209   0.009478
   21  O  2  S    0.000000  -0.057768   0.000000  -0.003863   0.504046
   22  O  2  S    0.000000   0.042656   0.000000  -0.043198  -0.862732
   23  O  2  X    0.000000  -0.077359   0.000000  -0.010358   0.064318
   24  O  2  Y    0.026622   0.000000  -0.039366   0.000000   0.000000
   25  O  2  Z    0.000000  -0.022402   0.000000   0.035970  -0.067095
   26  O  2  X    0.000000   0.128956   0.000000  -0.016544  -0.364136
   27  O  2  Y   -0.040390   0.000000   0.086219   0.000000   0.000000
   28  O  2  Z    0.000000   0.046870   0.000000  -0.058352   0.325980
   29  O  2 XX    0.000000   0.657109   0.000000  -0.563527  -0.239202
   30  O  2 YY    0.000000  -0.421482   0.000000  -0.090512   0.295895
   31  O  2 ZZ    0.000000  -0.235627   0.000000   0.654039  -0.056693
   32  O  2 XY   -0.239840   0.000000   0.586982   0.000000   0.000000
   33  O  2 XZ    0.000000   0.239360   0.000000  -0.072608   0.640318
   34  O  2 YZ    0.666709   0.000000  -0.403973   0.000000   0.000000
   35  O  3  S    0.000000  -0.001521   0.000000   0.002209   0.009478
   36  O  3  S    0.000000   0.057768   0.000000  -0.003863   0.504046
   37  O  3  S    0.000000  -0.042656   0.000000  -0.043198  -0.862732
   38  O  3  X    0.000000  -0.077359   0.000000   0.010358  -0.064318
   39  O  3  Y   -0.026622   0.000000  -0.039366   0.000000   0.000000
   40  O  3  Z    0.000000   0.022402   0.000000   0.035970  -0.067095
   41  O  3  X    0.000000   0.128956   0.000000   0.016544   0.364136
   42  O  3  Y    0.040390   0.000000   0.086219   0.000000   0.000000
   43  O  3  Z    0.000000  -0.046870   0.000000  -0.058352   0.325980
   44  O  3 XX    0.000000  -0.657109   0.000000  -0.563527  -0.239202
   45  O  3 YY    0.000000   0.421482   0.000000  -0.090512   0.295895
   46  O  3 ZZ    0.000000   0.235627   0.000000   0.654039  -0.056693
   47  O  3 XY   -0.239840   0.000000  -0.586982   0.000000   0.000000
   48  O  3 XZ    0.000000   0.239360   0.000000   0.072608  -0.640318
   49  O  3 YZ   -0.666709   0.000000  -0.403973   0.000000   0.000000

                     46
                    2.4784
                     B1  
    1  S  1  S    0.000000
    2  S  1  S    0.000000
    3  S  1  S    0.000000
    4  S  1  S    0.000000
    5  S  1  X   -0.106522
    6  S  1  Y    0.000000
    7  S  1  Z    0.000000
    8  S  1  X    0.399110
    9  S  1  Y    0.000000
   10  S  1  Z    0.000000
   11  S  1  X    0.304951
   12  S  1  Y    0.000000
   13  S  1  Z    0.000000
   14  S  1 XX    0.000000
   15  S  1 YY    0.000000
   16  S  1 ZZ    0.000000
   17  S  1 XY    0.000000
   18  S  1 XZ    0.576334
   19  S  1 YZ    0.000000
   20  O  2  S   -0.009256
   21  O  2  S   -0.459427
   22  O  2  S    0.708326
   23  O  2  X   -0.071755
   24  O  2  Y    0.000000
   25  O  2  Z    0.067856
   26  O  2  X    0.316977
   27  O  2  Y    0.000000
   28  O  2  Z   -0.337692
   29  O  2 XX    0.154364
   30  O  2 YY   -0.373079
   31  O  2 ZZ    0.218715
   32  O  2 XY    0.000000
   33  O  2 XZ   -0.617270
   34  O  2 YZ    0.000000
   35  O  3  S    0.009256
   36  O  3  S    0.459427
   37  O  3  S   -0.708326
   38  O  3  X   -0.071755
   39  O  3  Y    0.000000
   40  O  3  Z   -0.067856
   41  O  3  X    0.316977
   42  O  3  Y    0.000000
   43  O  3  Z    0.337692
   44  O  3 XX   -0.154364
   45  O  3 YY    0.373079
   46  O  3 ZZ   -0.218715
   47  O  3 XY    0.000000
   48  O  3 XZ   -0.617270
   49  O  3 YZ    0.000000
 ...... END OF RHF CALCULATION ......
 STEP CPU TIME =     4.29 TOTAL CPU TIME =        4.5 (    0.1 MIN)
 TOTAL WALL CLOCK TIME=        4.5 SECONDS, CPU UTILIZATION IS  99.55%

     ---------------------------------------------------------------------
     PROPERTIES FOR THE PBE      DFT FUNCTIONAL (RHF  TYPE) DENSITY MATRIX
     ---------------------------------------------------------------------

          -----------------
          ENERGY COMPONENTS
          -----------------

         WAVEFUNCTION NORMALIZATION =       1.0000000000

                ONE ELECTRON ENERGY =    -931.9770819474
                TWO ELECTRON ENERGY =     295.2685991486
           NUCLEAR REPULSION ENERGY =      88.5651135412
                                      ------------------
                       TOTAL ENERGY =    -548.1433692576

 ELECTRON-ELECTRON POTENTIAL ENERGY =     295.2685991486
  NUCLEUS-ELECTRON POTENTIAL ENERGY =   -1478.7702874259
   NUCLEUS-NUCLEUS POTENTIAL ENERGY =      88.5651135412
                                      ------------------
             TOTAL POTENTIAL ENERGY =   -1094.9365747361
               TOTAL KINETIC ENERGY =     546.7932054785
                 VIRIAL RATIO (V/T) =       2.0024692402

          ---------------------------------------
          MULLIKEN AND LOWDIN POPULATION ANALYSES
          ---------------------------------------

     ATOMIC MULLIKEN POPULATION IN EACH MOLECULAR ORBITAL

                      1          2          3          4          5

                  2.000000   2.000000   2.000000   2.000000   2.000000

    1             1.999997   0.000998   0.000390   1.999885   1.999988
    2             0.000001   0.999501   0.999805   0.000058   0.000006
    3             0.000001   0.999501   0.999805   0.000058   0.000006

                      6          7          8          9         10

                  2.000000   2.000000   2.000000   2.000000   2.000000

    1             2.000002   1.999978   0.547877   0.132622   1.380666
    2            -0.000001   0.000011   0.726061   0.933689   0.309667
    3            -0.000001   0.000011   0.726061   0.933689   0.309667

                     11         12         13         14         15

                  2.000000   2.000000   2.000000   2.000000   2.000000

    1             0.769048   0.980259   1.261687   0.087784   0.022524
    2             0.615476   0.509870   0.369156   0.956108   0.988738
    3             0.615476   0.509870   0.369156   0.956108   0.988738

                     16

                  2.000000

    1             0.082106
    2             0.958947
    3             0.958947

               ----- POPULATIONS IN EACH AO -----
                             MULLIKEN      LOWDIN
              1  S  1  S      2.00022     1.99600
              2  S  1  S      2.01070     1.97361
              3  S  1  S      1.00455     0.63797
              4  S  1  S      0.87688     0.55971
              5  S  1  X      1.99613     1.95374
              6  S  1  Y      1.99636     1.95764
              7  S  1  Z      1.99659     1.95796
              8  S  1  X      0.64777     0.60967
              9  S  1  Y      0.72388     0.70059
             10  S  1  Z      0.75137     0.71400
             11  S  1  X      0.28818     0.37512
             12  S  1  Y      0.53612     0.57915
             13  S  1  Z      0.30607     0.43826
             14  S  1 XX      0.02557     0.24058
             15  S  1 YY      0.02550     0.24521
             16  S  1 ZZ      0.02252     0.24215
             17  S  1 XY      0.05207     0.02581
             18  S  1 XZ      0.00533     0.06948
             19  S  1 YZ      0.00000     0.00514
             20  O  2  S      1.99805     1.98135
             21  O  2  S      0.85663     0.67348
             22  O  2  S      1.11745     0.61540
             23  O  2  X      0.99287     0.96102
             24  O  2  Y      0.81919     0.79092
             25  O  2  Z      0.86438     0.82836
             26  O  2  X      0.60886     0.66037
             27  O  2  Y      0.53651     0.57211
             28  O  2  Z      0.56385     0.63253
             29  O  2 XX      0.00176     0.20851
             30  O  2 YY      0.00132     0.21530
             31  O  2 ZZ      0.00102     0.21132
             32  O  2 XY      0.00403     0.00135
             33  O  2 XZ      0.00117     0.00563
             34  O  2 YZ      0.00000     0.00145
             35  O  3  S      1.99805     1.98135
             36  O  3  S      0.85663     0.67348
             37  O  3  S      1.11745     0.61540
             38  O  3  X      0.99287     0.96102
             39  O  3  Y      0.81919     0.79092
             40  O  3  Z      0.86438     0.82836
             41  O  3  X      0.60886     0.66037
             42  O  3  Y      0.53651     0.57211
             43  O  3  Z      0.56385     0.63253
             44  O  3 XX      0.00176     0.20851
             45  O  3 YY      0.00132     0.21530
             46  O  3 ZZ      0.00102     0.21132
             47  O  3 XY      0.00403     0.00135
             48  O  3 XZ      0.00117     0.00563
             49  O  3 YZ      0.00000     0.00145

          ----- MULLIKEN ATOMIC OVERLAP POPULATIONS -----
          (OFF-DIAGONAL ELEMENTS NEED TO BE MULTIPLIED BY 2)

             1           2           3

    1   14.7767708
    2    0.2445209   8.1869536
    3    0.2445209  -0.0643809   8.1869536

          TOTAL MULLIKEN AND LOWDIN ATOMIC POPULATIONS
       ATOM         MULL.POP.    CHARGE          LOW.POP.     CHARGE
    1 S            15.265813    0.734187        15.281802    0.718198
    2 O             8.367094   -0.367094         8.359099   -0.359099
    3 O             8.367094   -0.367094         8.359099   -0.359099

          MULLIKEN SPHERICAL HARMONIC POPULATIONS
       ATOM           S       P       D      F      G      H      I    TOTAL
    1 S             5.89    9.24    0.13   0.00   0.00   0.00   0.00   15.27
    2 O             3.97    4.39    0.01   0.00   0.00   0.00   0.00    8.37
    3 O             3.97    4.39    0.01   0.00   0.00   0.00   0.00    8.37

          -------------------------------
          BOND ORDER AND VALENCE ANALYSIS     BOND ORDER THRESHOLD=0.050
          -------------------------------

                   BOND                       BOND                       BOND
  ATOM PAIR DIST  ORDER      ATOM PAIR DIST  ORDER      ATOM PAIR DIST  ORDER
    1   2  1.800  1.560        1   3  1.800  1.560        2   3  2.546  0.523

                       TOTAL       BONDED        FREE
      ATOM            VALENCE     VALENCE     VALENCE
    1 S                 3.120       3.120       0.000
    2 O                 2.083       2.083       0.000
    3 O                 2.083       2.083       0.000

          ---------------------
          ELECTROSTATIC MOMENTS
          ---------------------

 POINT   1           X           Y           Z (BOHR)    CHARGE
                 0.000000    0.000000    0.000000        0.00 (A.U.)
         DX          DY          DZ         /D/  (DEBYE)
     0.000000    0.000000   -3.250090    3.250090
 ...... END OF PROPERTY EVALUATION ......
 STEP CPU TIME =     0.02 TOTAL CPU TIME =        4.5 (    0.1 MIN)
 TOTAL WALL CLOCK TIME=        4.5 SECONDS, CPU UTILIZATION IS 100.00%
               580000  WORDS OF DYNAMIC MEMORY USED
 EXECUTION OF GAMESS TERMINATED NORMALLY Thu Feb 26 00:20:13 2015
 DDI: 263624 bytes (0.3 MB / 0 MWords) used by master data server.

 ----------------------------------------
 CPU timing information for all processes
 ========================================
 0: 4.454 + 0.31 = 4.486
 ----------------------------------------
 ddikick.x: exited gracefully.
----- accounting info -----
Files used on the master node dftfe.crc.nd.edu were:
-rw-r--r-- 1 pmehta1 campus   37475 Feb 26 00:20 /tmp/gamess.dat
-rw-r--r-- 1 pmehta1 campus     141 Feb 26 00:20 /tmp/gamess.F05
-rw-r--r-- 1 pmehta1 campus 2160288 Feb 26 00:20 /tmp/gamess.F08
-rw-r--r-- 1 pmehta1 campus 1220440 Feb 26 00:20 /tmp/gamess.F10
Thu Feb 26 00:20:16 EST 2015
0.252u 0.179s 0:07.91 5.3%	0+0k 0+112io 0pf+0w
