----- GAMESS execution script 'rungms' -----
This job is running on host dftfe.crc.nd.edu
under operating system Linux at Thu Feb 26 00:14:46 EST 2015
Available scratch disk space (Kbyte units) at beginning of the job is
Filesystem     1K-blocks     Used Available Use% Mounted on
/dev/sda2      147771864 22811828 117453604  17% /
GAMESS temporary binary files will be written to /tmp
GAMESS supplementary output files will be written to /tmp
Copying input file gamess.inp to your run's scratch directory...

 Distributed Data Interface kickoff program.
 Initiating 1 compute processes on 1 nodes to run the following command:
 /opt/crc/gamess/2012R1/gamess/gamess.00.x gamess 

          ******************************************************
          *         GAMESS VERSION =  1 MAY 2012 (R1)          *
          *             FROM IOWA STATE UNIVERSITY             *
          * M.W.SCHMIDT, K.K.BALDRIDGE, J.A.BOATZ, S.T.ELBERT, *
          *   M.S.GORDON, J.H.JENSEN, S.KOSEKI, N.MATSUNAGA,   *
          *          K.A.NGUYEN, S.J.SU, T.L.WINDUS,           *
          *       TOGETHER WITH M.DUPUIS, J.A.MONTGOMERY       *
          *         J.COMPUT.CHEM.  14, 1347-1363(1993)        *
          **************** 64 BIT LINUX VERSION ****************

  SINCE 1993, STUDENTS AND POSTDOCS WORKING AT IOWA STATE UNIVERSITY
  AND ALSO IN THEIR VARIOUS JOBS AFTER LEAVING ISU HAVE MADE IMPORTANT
  CONTRIBUTIONS TO THE CODE:
     IVANA ADAMOVIC, CHRISTINE AIKENS, YURI ALEXEEV, POOJA ARORA,
     ANDREY ASADCHEV, ROB BELL, PRADIPTA BANDYOPADHYAY, JONATHAN BENTZ,
     BRETT BODE, GALINA CHABAN, WEI CHEN, CHEOL HO CHOI, PAUL DAY,
     ALBERT DEFUSCO, TIM DUDLEY, DMITRI FEDOROV, GRAHAM FLETCHER,
     MARK FREITAG, KURT GLAESEMANN, DAN KEMP, GRANT MERRILL,
     NORIYUKI MINEZAWA, JONATHAN MULLIN, TAKESHI NAGATA,
     SEAN NEDD, HEATHER NETZLOFF, BOSILJKA NJEGIC, RYAN OLSON, MIKE PAK,
     JIM SHOEMAKER, LYUDMILA SLIPCHENKO, SAROM SOK, JIE SONG,
     TETSUYA TAKETSUGU, SIMON WEBB, SOOHAENG YOO, FEDERICO ZAHARIEV

  ADDITIONAL CODE HAS BEEN PROVIDED BY COLLABORATORS IN OTHER GROUPS:
     IOWA STATE UNIVERSITY:
          JOE IVANIC, LAIMUTIS BYTAUTAS, KLAUS RUEDENBERG
     UNIVERSITY OF TOKYO: KIMIHIKO HIRAO, TAKAHITO NAKAJIMA,
          TAKAO TSUNEDA, MUNEAKI KAMIYA, SUSUMU YANAGISAWA,
          KIYOSHI YAGI, MAHITO CHIBA, SEIKEN TOKURA, NAOAKI KAWAKAMI
     UNIVERSITY OF AARHUS: FRANK JENSEN
     UNIVERSITY OF IOWA: VISVALDAS KAIRYS, HUI LI
     NATIONAL INST. OF STANDARDS AND TECHNOLOGY: WALT STEVENS, DAVID GARMER
     UNIVERSITY OF PISA: BENEDETTA MENNUCCI, JACOPO TOMASI
     UNIVERSITY OF MEMPHIS: HENRY KURTZ, PRAKASHAN KORAMBATH
     UNIVERSITY OF ALBERTA: TOBY ZENG, MARIUSZ KLOBUKOWSKI
     UNIVERSITY OF NEW ENGLAND: MARK SPACKMAN
     MIE UNIVERSITY: HIROAKI UMEDA
     MICHIGAN STATE UNIVERSITY:
          KAROL KOWALSKI, MARTA WLOCH, JEFFREY GOUR, JESSE LUTZ, PIOTR PIECUCH
     UNIVERSITY OF SILESIA: MONIKA MUSIAL, STANISLAW KUCHARSKI
     FACULTES UNIVERSITAIRES NOTRE-DAME DE LA PAIX:
          OLIVIER QUINET, BENOIT CHAMPAGNE
     UNIVERSITY OF CALIFORNIA - SANTA BARBARA: BERNARD KIRTMAN
     INSTITUTE FOR MOLECULAR SCIENCE:
          KAZUYA ISHIMURA, MICHIO KATOUDA, AND SHIGERU NAGASE
     UNIVERSITY OF NOTRE DAME: DAN CHIPMAN
     KYUSHU UNIVERSITY:
          HARUYUKI NAKANO,
          FENG LONG GU, JACEK KORCHOWIEC, MARCIN MAKOWSKI, AND YURIKO AOKI,
          HIROTOSHI MORI AND EISAKU MIYOSHI
     PENNSYLVANIA STATE UNIVERSITY:
          TZVETELIN IORDANOV, CHET SWALINA, JONATHAN SKONE,
          SHARON HAMMES-SCHIFFER
     WASEDA UNIVERSITY:
          MASATO KOBAYASHI, TOMOKO AKAMA, TSUGUKI TOUMA,
          TAKESHI YOSHIKAWA, YASUHIRO IKABATA, HIROMI NAKAI
     UNIVERSITY OF NEBRASKA:
          PEIFENG SU, DEJUN SI, NANDUN THELLAMUREGE, YALI WANG, HUI LI
     UNIVERSITY OF ZURICH:
          ROBERTO PEVERATI, KIM BALDRIDGE
     N. COPERNICUS UNIVERSITY AND JACKSON STATE UNIVERSITY:
          MARIA BARYSZ

 EXECUTION OF GAMESS BEGUN Thu Feb 26 00:14:47 2015

            ECHO OF THE FIRST FEW INPUT CARDS -
 INPUT CARD> $BASIS GBASIS=PC1 $END                                                         
 INPUT CARD> $CONTRL COORD=ZMT ISPHER=1 RUNTYP=ENERGY DFTTYP=PBE $END                       
 INPUT CARD>                                                                                
 INPUT CARD> $DATA                                                                          
 INPUT CARD>Title                                                                           
 INPUT CARD>Cnv 2                                                                           
 INPUT CARD>                                                                                
 INPUT CARD>S                                                                               
 INPUT CARD>O 1 1.30                                                                        
 INPUT CARD>O 1 1.30 2 160.0                                                                
 INPUT CARD> $END                                                                           
    1000000 WORDS OF MEMORY AVAILABLE

     BASIS OPTIONS
     -------------
     GBASIS=PC1          IGAUSS=       0      POLAR=NONE    
     NDFUNC=       0     NFFUNC=       0     DIFFSP=       F
     NPFUNC=       0      DIFFS=       F     BASNAM=        


     RUN TITLE
     ---------
 Title                                                                           

 THE POINT GROUP OF THE MOLECULE IS CNV     
 THE ORDER OF THE PRINCIPAL AXIS IS     2

 YOUR FULLY SUBSTITUTED Z-MATRIX IS
 S   
 O      1   1.3000000
 O      1   1.3000000  2  160.0000

 THE MOMENTS OF INERTIA ARE (AMU-ANGSTROM**2)
 IXX=     0.815   IYY=    52.433   IZZ=    53.247

 ATOM      ATOMIC                      COORDINATES (BOHR)
           CHARGE         X                   Y                   Z
 S          16.0     0.0000000000        0.0000000000       -0.2133550497
 O           8.0    -2.4193218449        0.0000000000        0.2132366666
 O           8.0     2.4193218449        0.0000000000        0.2132366666

          INTERNUCLEAR DISTANCES (ANGS.)
          ------------------------------

                1 S          2 O          3 O     

   1 S       0.0000000    1.3000000 *  1.3000000 *
   2 O       1.3000000 *  0.0000000    2.5605002 *
   3 O       1.3000000 *  2.5605002 *  0.0000000  

  * ... LESS THAN  3.000


     ATOMIC BASIS SET
     ----------------
 THE CONTRACTED PRIMITIVE FUNCTIONS HAVE BEEN UNNORMALIZED
 THE CONTRACTED BASIS FUNCTIONS ARE NOW NORMALIZED TO UNITY

  SHELL TYPE  PRIMITIVE        EXPONENT          CONTRACTION COEFFICIENT(S)

 S         

      1   S       1         55510.0000000    0.000587229760
      1   S       2          8326.7000000    0.004532413947
      1   S       3          1895.6000000    0.023265261648
      1   S       4           536.7700000    0.089696133027
      1   S       5           174.6700000    0.254098332277
      1   S       6            62.5780000    0.438665087637
      1   S       7            23.5730000    0.314547135094
      1   S       8             5.8908000    0.032727897102

      2   S       9          8326.7000000   -0.000019755715
      2   S      10          1895.6000000   -0.000043822381
      2   S      11           536.7700000   -0.001730264906
      2   S      12           174.6700000   -0.009381263460
      2   S      13            62.5780000   -0.064050766303
      2   S      14            23.5730000   -0.082478179196
      2   S      15             5.8908000    0.478342956889
      2   S      16             2.1852000    0.626896670208

      3   S      17          1895.6000000    0.000016227260
      3   S      18           536.7700000    0.000191135619
      3   S      19           174.6700000    0.001952069674
      3   S      20            62.5780000    0.010578701087
      3   S      21            23.5730000    0.022164934551
      3   S      22             5.8908000   -0.184968323118
      3   S      23             2.1852000   -0.480920750976
      3   S      24             0.4528200    1.243822243872

      4   S      25             0.1620200    1.000000000000

      5   P      26           395.4500000    0.004642761329
      5   P      27            92.8340000    0.036023396489
      5   P      28            29.2660000    0.149058869978
      5   P      29            10.5950000    0.360033266263
      5   P      30             4.0272000    0.455756476221
      5   P      31             1.5484000    0.206167664178

      6   P      32            92.8340000    0.000169901442
      6   P      33            29.2660000   -0.002541839934
      6   P      34            10.5950000   -0.007867614595
      6   P      35             4.0272000   -0.037231009184
      6   P      36             1.5484000    0.161417246830
      6   P      37             0.4613400    0.902230419976

      7   P      38             0.1313100    1.000000000000

      8   D      39             0.5500000    1.000000000000

 O         

     15   S      40          2306.7000000    0.005424388755
     15   S      41           347.1500000    0.040474749465
     15   S      42            78.8900000    0.180219634554
     15   S      43            21.8760000    0.462370311787
     15   S      44             6.6646000    0.454888396263

     16   S      45           347.1500000   -0.000655003786
     16   S      46            78.8900000   -0.005362052952
     16   S      47            21.8760000   -0.074902158894
     16   S      48             6.6646000   -0.181442579655
     16   S      49             1.0669000    1.102006874042

     17   S      50             0.3070000    1.000000000000

     18   P      51            17.0220000    0.068979967443
     18   P      52             3.6838000    0.351985516325
     18   P      53             0.9923400    0.724036547822

     19   P      54             0.2448700    1.000000000000

     20   D      55             1.0000000    1.000000000000

 TOTAL NUMBER OF BASIS SET SHELLS             =   20
 NUMBER OF CARTESIAN GAUSSIAN BASIS FUNCTIONS =   49
 NOTE: THIS RUN WILL RESTRICT THE MO VARIATION SPACE TO SPHERICAL HARMONICS.
 THE NUMBER OF ORBITALS KEPT IN THE VARIATIONAL SPACE WILL BE PRINTED LATER.
 NUMBER OF ELECTRONS                          =   32
 CHARGE OF MOLECULE                           =    0
 SPIN MULTIPLICITY                            =    1
 NUMBER OF OCCUPIED ORBITALS (ALPHA)          =   16
 NUMBER OF OCCUPIED ORBITALS (BETA )          =   16
 TOTAL NUMBER OF ATOMS                        =    3
 THE NUCLEAR REPULSION ENERGY IS      117.4340592050

     LEBEDEV GRID-BASED DFT OPTIONS
     ------------------------------
     DFTTYP=PBE     
     NRAD  =      96     NLEB  =     302
     NRAD0 =      24     NLEB0 =     110
     SWOFF =    5.00E-03 (PURE SCF -> DFT)
     SWITCH=    3.00E-04 (COARSE -> TIGHT GRID)
     THRESH=    0.00E+00 GTHRE=    1.00E+00

 GRIMME'S EMPIRICAL DISPERSION CORRECTION= F

     $CONTRL OPTIONS
     ---------------
 SCFTYP=RHF          RUNTYP=ENERGY       EXETYP=RUN     
 MPLEVL=       0     CITYP =NONE         CCTYP =NONE         VBTYP =NONE    
 DFTTYP=PBE          TDDFT =NONE    
 MULT  =       1     ICHARG=       0     NZVAR =       0     COORD =ZMT     
 PP    =NONE         RELWFN=NONE         LOCAL =NONE         NUMGRD=       F
 ISPHER=       1     NOSYM =       0     MAXIT =      30     UNITS =ANGS    
 PLTORB=       F     MOLPLT=       F     AIMPAC=       F     FRIEND=        
 NPRINT=       7     IREST =       0     GEOM  =INPUT   
 NORMF =       0     NORMP =       0     ITOL  =      20     ICUT  =       9
 INTTYP=BEST         GRDTYP=BEST         QMTTOL= 1.0E-06

     $SYSTEM OPTIONS
     ---------------
  REPLICATED MEMORY=     1000000 WORDS (ON EVERY NODE).
 DISTRIBUTED MEMDDI=           0 MILLION WORDS IN AGGREGATE,
 MEMDDI DISTRIBUTED OVER   1 PROCESSORS IS           0 WORDS/PROCESSOR.
 TOTAL MEMORY REQUESTED ON EACH PROCESSOR=     1000000 WORDS.
 TIMLIM=      525600.00 MINUTES, OR     365.0 DAYS.
 PARALL= F  BALTYP=  DLB     KDIAG=    0  COREFL= F
 MXSEQ2=     300 MXSEQ3=     150

          ----------------
          PROPERTIES INPUT
          ----------------

     MOMENTS            FIELD           POTENTIAL          DENSITY
 IEMOM =       1   IEFLD =       0   IEPOT =       0   IEDEN =       0
 WHERE =COMASS     WHERE =NUCLEI     WHERE =NUCLEI     WHERE =NUCLEI  
 OUTPUT=BOTH       OUTPUT=BOTH       OUTPUT=BOTH       OUTPUT=BOTH    
 IEMINT=       0   IEFINT=       0                     IEDINT=       0
                                                       MORB  =       0
          EXTRAPOLATION IN EFFECT
          DIIS IN EFFECT
 ORBITAL PRINTING OPTION: NPREO=     1    49     2     1

     -------------------------------
     INTEGRAL TRANSFORMATION OPTIONS
     -------------------------------
     NWORD  =            0
     CUTOFF = 1.0E-09     MPTRAN =       0
     DIRTRF =       F     AOINTS =DUP     

          ----------------------
          INTEGRAL INPUT OPTIONS
          ----------------------
 NOPK  =       1 NORDER=       0 SCHWRZ=       F

   --- ENCODED Z MATRIX ---
 COORD  TYPE   I   J   K   L   M   N
    1      1    3   1
    2      1    2   1
    3      2    2   1   3

 THE DETERMINANT OF THE G MATRIX IS 10**(    -4)

 THE DETERMINANT OF THE G MATRIX IS 10**(    -4)
 * * * WARNING * * *
 YOUR B MATRIX HAS A SMALL DETERMINANT.
 THIS SUGGESTS YOU MAY HAVE BADLY CHOSEN COORDINATES.

     ------------------------------------------
     THE POINT GROUP IS CNV, NAXIS= 2, ORDER= 4
     ------------------------------------------

 -- VARIATIONAL SPACE WILL BE RESTRICTED TO PURE SPHERICAL HARMONICS ONLY --
 AFTER EXCLUDING CONTAMINANT COMBINATIONS FROM THE CARTESIAN GAUSSIAN BASIS
 SET, THE NUMBER OF SPHERICAL HARMONICS KEPT IN THE VARIATION SPACE IS   46

     DIMENSIONS OF THE SYMMETRY SUBSPACES ARE
 A1  =   19     A2  =    5     B1  =   14     B2  =    8

 ..... DONE SETTING UP THE RUN .....
 STEP CPU TIME =     0.01 TOTAL CPU TIME =        0.0 (    0.0 MIN)
 TOTAL WALL CLOCK TIME=        0.0 SECONDS, CPU UTILIZATION IS  50.00%

          ********************
          1 ELECTRON INTEGRALS
          ********************
 ...... END OF ONE-ELECTRON INTEGRALS ......
 STEP CPU TIME =     0.00 TOTAL CPU TIME =        0.0 (    0.0 MIN)
 TOTAL WALL CLOCK TIME=        0.0 SECONDS, CPU UTILIZATION IS  50.00%

          -------------
          GUESS OPTIONS
          -------------
          GUESS =HUCKEL            NORB  =       0          NORDER=       0
          MIX   =       F          PRTMO =       F          PUNMO =       F
          TOLZ  = 1.0E-08          TOLE  = 1.0E-05
          SYMDEN=       F          PURIFY=       F

 INITIAL GUESS ORBITALS GENERATED BY HUCKEL   ROUTINE.
 HUCKEL GUESS REQUIRES     21583 WORDS.

 STATISTICS FOR GENERATION OF SYMMETRY ORBITAL -Q- MATRIX
 NUMBER OF CARTESIAN ATOMIC ORBITALS=         49
 NUMBER OF SPHERICAL CONTAMINANTS DROPPED=     3
 NUMBER OF LINEARLY DEPENDENT MOS DROPPED=     0
 TOTAL NUMBER OF MOS IN VARIATION SPACE=      46

 SYMMETRIES FOR INITIAL GUESS ORBITALS FOLLOW.   BOTH SET(S).
    16 ORBITALS ARE OCCUPIED (    7 CORE ORBITALS).
     8=?A1      9=?B1     10=?A1     11=B2      12=A1      13=B1      14=A2  
    15=B1      16=A1      17=B2      18=A1      19=B1      20=A1      21=A1  
    22=A1      23=A1      24=A1      25=A1      26=A1  
 ...... END OF INITIAL ORBITAL SELECTION ......
 STEP CPU TIME =     0.01 TOTAL CPU TIME =        0.0 (    0.0 MIN)
 TOTAL WALL CLOCK TIME=        0.0 SECONDS, CPU UTILIZATION IS  66.67%

                    ----------------------
                    AO INTEGRAL TECHNOLOGY
                    ----------------------
     S,P,L SHELL ROTATED AXIS INTEGRALS, REPROGRAMMED BY
        KAZUYA ISHIMURA (IMS) AND JOSE SIERRA (SYNSTAR).
     S,P,D,L SHELL ROTATED AXIS INTEGRALS PROGRAMMED BY
        KAZUYA ISHIMURA (INSTITUTE FOR MOLECULAR SCIENCE).
     S,P,D,F,G SHELL TO TOTAL QUARTET ANGULAR MOMENTUM SUM 5,
        ERIC PROGRAM BY GRAHAM FLETCHER (ELORET AND NASA ADVANCED
        SUPERCOMPUTING DIVISION, AMES RESEARCH CENTER).
     S,P,D,F,G,L SHELL GENERAL RYS QUADRATURE PROGRAMMED BY
        MICHEL DUPUIS (PACIFIC NORTHWEST NATIONAL LABORATORY).

          --------------------
          2 ELECTRON INTEGRALS
          --------------------

 THE -PK- OPTION IS OFF, THE INTEGRALS ARE NOT IN SUPERMATRIX FORM.
 STORING   15000 INTEGRALS/RECORD ON DISK, USING 12 BYTES/INTEGRAL.
 TWO ELECTRON INTEGRAL EVALUATION REQUIRES   90606 WORDS OF MEMORY.
 II,JST,KST,LST =  1  1  1  1 NREC =         1 INTLOC =    1
 II,JST,KST,LST =  2  1  1  1 NREC =         1 INTLOC =    2
 II,JST,KST,LST =  3  1  1  1 NREC =         1 INTLOC =    7
 II,JST,KST,LST =  4  1  1  1 NREC =         1 INTLOC =   22
 II,JST,KST,LST =  5  1  1  1 NREC =         1 INTLOC =   56
 II,JST,KST,LST =  6  1  1  1 NREC =         1 INTLOC =  125
 II,JST,KST,LST =  7  1  1  1 NREC =         1 INTLOC =  329
 II,JST,KST,LST =  8  1  1  1 NREC =         1 INTLOC =  776
 II,JST,KST,LST =  9  1  1  1 NREC =         1 INTLOC = 2864
 II,JST,KST,LST = 10  1  1  1 NREC =         1 INTLOC = 2864
 II,JST,KST,LST = 11  1  1  1 NREC =         1 INTLOC = 2864
 II,JST,KST,LST = 12  1  1  1 NREC =         1 INTLOC = 2864
 II,JST,KST,LST = 13  1  1  1 NREC =         1 INTLOC = 2864
 II,JST,KST,LST = 14  1  1  1 NREC =         1 INTLOC = 2864
 II,JST,KST,LST = 15  1  1  1 NREC =         1 INTLOC = 2864
 II,JST,KST,LST = 16  1  1  1 NREC =         1 INTLOC = 5129
 II,JST,KST,LST = 17  1  1  1 NREC =         1 INTLOC = 8312
 II,JST,KST,LST = 18  1  1  1 NREC =         1 INTLOC =12747
 II,JST,KST,LST = 19  1  1  1 NREC =         3 INTLOC =  559
 II,JST,KST,LST = 20  1  1  1 NREC =         5 INTLOC = 1723
 TOTAL NUMBER OF NONZERO TWO-ELECTRON INTEGRALS =              177640
         12 INTEGRAL RECORDS WERE STORED ON DISK FILE  8.
  ...... END OF TWO-ELECTRON INTEGRALS .....
 STEP CPU TIME =     0.16 TOTAL CPU TIME =        0.2 (    0.0 MIN)
 TOTAL WALL CLOCK TIME=        0.2 SECONDS, CPU UTILIZATION IS  94.74%

          --------------------------
               R-PBE SCF CALCULATION
          --------------------------

     NUCLEAR ENERGY =       117.4340592050
     MAXIT =   30     NPUNCH=    2
     EXTRAP=T  DAMP=F  SHIFT=F  RSTRCT=F  DIIS=T  DEM=F  SOSCF=F
         DENSITY MATRIX CONVERGENCE THRESHOLD=  1.00E-05
     COARSE -> FINE DFT GRID SWITCH THRESHOLD=  3.00E-04 (SWITCH IN $DFT)
                   HF -> DFT SWITCH THRESHOLD=  5.00E-03 (SWOFF IN $DFT)
     MEMORY REQUIRED FOR RHF ITERS=    183108 WORDS.

 DFT CODE IS SWITCHING FROM THE FINE GRID NRAD= 96,  NLEB=  302
                      TO THE COARSE GRID NRAD0= 24, NLEB0=  110

     EXCHANGE FUNCTIONAL   =PBE       
     CORRELATION FUNCTIONAL=PBE       
     DFT THRESHOLD         =.460E-07
     GRID CHANGE THRESHOLD =.300E-03
 FOR AN EULER-MACLAURIN QUADRATURE USING  96 RADIAL POINTS:
 SMALLEST GAUSSIAN PRIMITIVE EXPONENT=        0.1313100000 OF TYPE -P-
 ON ATOM NUMBER   1 HAS RADIAL NORMALIZATION=  1.000000
  LARGEST GAUSSIAN PRIMITIVE EXPONENT=    55510.0000000000 OF TYPE -S-
 ON ATOM NUMBER   1 HAS RADIAL NORMALIZATION=  0.999999
 DFT IS SWITCHED OFF, PERFORMING PURE SCF UNTIL SWOFF THRESHOLD IS REACHED.

 ITER EX DEM     TOTAL ENERGY        E CHANGE  DENSITY CHANGE    DIIS ERROR
   1  0  0     -545.7526332850  -545.7526332850   0.359605491   1.492588538
          * * *   INITIATING DIIS PROCEDURE   * * *
   2  1  0     -546.7259171803    -0.9732838953   0.676063732   0.247870607
   3  2  0     -546.8620845014    -0.1361673211   0.181126492   0.149296496
   4  3  0     -546.9295633859    -0.0674788845   0.286666895   0.044086950
   5  4  0     -546.9482464884    -0.0186831025   0.235360945   0.027172205
   6  5  0     -546.9566116261    -0.0083651377   0.108016599   0.011454349
   7  6  0     -546.9583210534    -0.0017094273   0.025520779   0.002282679
   8  7  0     -546.9583758997    -0.0000548463   0.000925353   0.000497227
 CONVERGED TO SWOFF, SO DFT CALCULATION IS NOW SWITCHED ON.
          * * *   INITIATING DIIS PROCEDURE   * * *
   9  8  0     -548.0346833939    -1.0763074942   0.196967989   0.111663748
  10  9  0     -548.0496394494    -0.0149560555   0.116993292   0.054894638
  11 10  0     -548.0471058226     0.0025336268   0.048990087   0.066436062
  12 11  0     -548.0607026816    -0.0135968590   0.017736416   0.012901111
  13 12  0     -548.0610738238    -0.0003711421   0.009224660   0.001084414
  14 13  0     -548.0610783613    -0.0000045375   0.002987567   0.000307668
  15 14  0     -548.0610788327    -0.0000004714   0.000199924   0.000033518
 DFT CODE IS SWITCHING BACK TO THE FINE GRID
          * * *   INITIATING DIIS PROCEDURE   * * *
  16 15  0     -548.0744178131    -0.0133389804   0.027135278   0.011228509
  17 16  0     -548.0746868459    -0.0002690328   0.021515709   0.003848016
  18 17  0     -548.0746908884    -0.0000040425   0.004671545   0.004392621
  19 18  0     -548.0747308616    -0.0000399733   0.002736569   0.001036571
  20 19  0     -548.0747343356    -0.0000034740   0.000457525   0.000180280
  21 20  0     -548.0747344452    -0.0000001096   0.000038119   0.000010204
  22 21  0     -548.0747344454    -0.0000000002   0.000021369   0.000002995
  23 22  0     -548.0747344455     0.0000000000   0.000003523   0.000000390
  24 23  0     -548.0747344455     0.0000000000   0.000000043   0.000000019

          -----------------
          DENSITY CONVERGED
          -----------------
     TIME TO FORM FOCK OPERATORS=       4.9 SECONDS (       0.2 SEC/ITER)
     TIME TO SOLVE SCF EQUATIONS=       0.0 SECONDS (       0.0 SEC/ITER)

 FINAL R-PBE ENERGY IS     -548.0747344455 AFTER  24 ITERATIONS
 DFT EXCHANGE + CORRELATION ENERGY =       -42.7887599659
 TOTAL ELECTRON NUMBER             =        32.0000074092

          ------------
          EIGENVECTORS
          ------------

                      1          2          3          4          5
                  -88.1930   -18.7941   -18.7941    -7.8183    -5.8417
                     A1         B1         A1         A1         B1  
    1  S  1  S    1.002996   0.000000  -0.000059  -0.273935   0.000000
    2  S  1  S   -0.010219   0.000000   0.000587   1.039419   0.000000
    3  S  1  S    0.002087   0.000000  -0.000053   0.042218   0.000000
    4  S  1  S   -0.000201   0.000000   0.008252  -0.007204   0.000000
    5  S  1  X    0.000000  -0.000170   0.000000   0.000000   0.995746
    6  S  1  Y    0.000000   0.000000   0.000000   0.000000   0.000000
    7  S  1  Z    0.000059   0.000000   0.000025   0.013169   0.000000
    8  S  1  X    0.000000  -0.001278   0.000000   0.000000   0.010471
    9  S  1  Y    0.000000   0.000000   0.000000   0.000000   0.000000
   10  S  1  Z    0.000089   0.000000   0.000239   0.001713   0.000000
   11  S  1  X    0.000000  -0.009172   0.000000   0.000000  -0.000736
   12  S  1  Y    0.000000   0.000000   0.000000   0.000000   0.000000
   13  S  1  Z    0.000035   0.000000   0.001661  -0.000203   0.000000
   14  S  1 XX    0.000432   0.000000  -0.001591   0.003546   0.000000
   15  S  1 YY   -0.000222   0.000000   0.000734  -0.001768   0.000000
   16  S  1 ZZ   -0.000211   0.000000   0.000857  -0.001778   0.000000
   17  S  1 XY    0.000000   0.000000   0.000000   0.000000   0.000000
   18  S  1 XZ    0.000000   0.000386   0.000000   0.000000   0.001561
   19  S  1 YZ    0.000000   0.000000   0.000000   0.000000   0.000000
   20  O  2  S    0.000020   0.703284   0.703199  -0.000483   0.001319
   21  O  2  S    0.000025   0.027036   0.026357  -0.000011  -0.001492
   22  O  2  S   -0.000528  -0.016228  -0.012058  -0.002855  -0.000493
   23  O  2  X   -0.000180   0.000980   0.001641  -0.000441  -0.002640
   24  O  2  Y    0.000000   0.000000   0.000000   0.000000   0.000000
   25  O  2  Z    0.000040  -0.000120  -0.000061   0.000123   0.000581
   26  O  2  X   -0.000396  -0.002719  -0.003413  -0.002796   0.000066
   27  O  2  Y    0.000000   0.000000   0.000000   0.000000   0.000000
   28  O  2  Z    0.000085   0.001235  -0.000277   0.000666   0.000328
   29  O  2 XX   -0.000175  -0.000058  -0.000077   0.000182  -0.001395
   30  O  2 YY    0.000097   0.000080   0.000004  -0.000067   0.000790
   31  O  2 ZZ    0.000078  -0.000022   0.000073  -0.000115   0.000604
   32  O  2 XY    0.000000   0.000000   0.000000   0.000000   0.000000
   33  O  2 XZ    0.000082   0.000261  -0.000224   0.000096   0.000758
   34  O  2 YZ    0.000000   0.000000   0.000000   0.000000   0.000000
   35  O  3  S    0.000020  -0.703284   0.703199  -0.000483  -0.001319
   36  O  3  S    0.000025  -0.027036   0.026357  -0.000011   0.001492
   37  O  3  S   -0.000528   0.016228  -0.012058  -0.002855   0.000493
   38  O  3  X    0.000180   0.000980  -0.001641   0.000441  -0.002640
   39  O  3  Y    0.000000   0.000000   0.000000   0.000000   0.000000
   40  O  3  Z    0.000040   0.000120  -0.000061   0.000123  -0.000581
   41  O  3  X    0.000396  -0.002719   0.003413   0.002796   0.000066
   42  O  3  Y    0.000000   0.000000   0.000000   0.000000   0.000000
   43  O  3  Z    0.000085  -0.001235  -0.000277   0.000666  -0.000328
   44  O  3 XX   -0.000175   0.000058  -0.000077   0.000182   0.001395
   45  O  3 YY    0.000097  -0.000080   0.000004  -0.000067  -0.000790
   46  O  3 ZZ    0.000078   0.000022   0.000073  -0.000115  -0.000604
   47  O  3 XY    0.000000   0.000000   0.000000   0.000000   0.000000
   48  O  3 XZ   -0.000082   0.000261   0.000224  -0.000096   0.000758
   49  O  3 YZ    0.000000   0.000000   0.000000   0.000000   0.000000

                      6          7          8          9         10
                   -5.8357    -5.8325    -1.1239    -1.0476    -0.5441
                     B2         A1         A1         B1         A1  
    1  S  1  S    0.000000   0.003808   0.057184   0.000000  -0.054207
    2  S  1  S    0.000000  -0.014231  -0.171359   0.000000   0.144133
    3  S  1  S    0.000000   0.000677   0.317618   0.000000  -0.352928
    4  S  1  S    0.000000  -0.001185   0.126861   0.000000  -0.234136
    5  S  1  X    0.000000   0.000000   0.000000  -0.180073   0.000000
    6  S  1  Y    0.996865   0.000000   0.000000   0.000000   0.000000
    7  S  1  Z    0.000000   0.996800  -0.035478   0.000000   0.012258
    8  S  1  X    0.000000   0.000000   0.000000   0.316423   0.000000
    9  S  1  Y    0.008943   0.000000   0.000000   0.000000   0.000000
   10  S  1  Z    0.000000   0.008773   0.066996   0.000000  -0.034218
   11  S  1  X    0.000000   0.000000   0.000000  -0.005525   0.000000
   12  S  1  Y   -0.000300   0.000000   0.000000   0.000000   0.000000
   13  S  1  Z    0.000000  -0.000319  -0.001854   0.000000   0.008487
   14  S  1 XX    0.000000  -0.000823   0.093397   0.000000   0.026915
   15  S  1 YY    0.000000  -0.000420  -0.048805   0.000000  -0.014787
   16  S  1 ZZ    0.000000   0.001243  -0.044592   0.000000  -0.012128
   17  S  1 XY    0.000000   0.000000   0.000000   0.000000   0.000000
   18  S  1 XZ    0.000000   0.000000   0.000000   0.044026   0.000000
   19  S  1 YZ    0.000957   0.000000   0.000000   0.000000   0.000000
   20  O  2  S    0.000000  -0.000222  -0.125394   0.143484  -0.104435
   21  O  2  S    0.000000   0.000292   0.241821  -0.282765   0.214192
   22  O  2  S    0.000000   0.000629   0.232302  -0.301800   0.368668
   23  O  2  X    0.000000   0.000641   0.131331  -0.134302  -0.266378
   24  O  2  Y    0.000322   0.000000   0.000000   0.000000   0.000000
   25  O  2  Z    0.000000   0.000199  -0.013504   0.018232   0.034970
   26  O  2  X    0.000000   0.000218   0.034248  -0.027200  -0.139869
   27  O  2  Y    0.000034   0.000000   0.000000   0.000000   0.000000
   28  O  2  Z    0.000000  -0.000031   0.003255   0.006515   0.014930
   29  O  2 XX    0.000000   0.000375   0.014511  -0.013305  -0.015811
   30  O  2 YY    0.000000  -0.000087  -0.006286   0.006912   0.008572
   31  O  2 ZZ    0.000000  -0.000288  -0.008226   0.006393   0.007239
   32  O  2 XY    0.000452   0.000000   0.000000   0.000000   0.000000
   33  O  2 XZ    0.000000   0.000326   0.001186   0.005742   0.004146
   34  O  2 YZ   -0.000129   0.000000   0.000000   0.000000   0.000000
   35  O  3  S    0.000000  -0.000222  -0.125394  -0.143484  -0.104435
   36  O  3  S    0.000000   0.000292   0.241821   0.282765   0.214192
   37  O  3  S    0.000000   0.000629   0.232302   0.301800   0.368668
   38  O  3  X    0.000000  -0.000641  -0.131331  -0.134302   0.266378
   39  O  3  Y    0.000322   0.000000   0.000000   0.000000   0.000000
   40  O  3  Z    0.000000   0.000199  -0.013504  -0.018232   0.034970
   41  O  3  X    0.000000  -0.000218  -0.034248  -0.027200   0.139869
   42  O  3  Y    0.000034   0.000000   0.000000   0.000000   0.000000
   43  O  3  Z    0.000000  -0.000031   0.003255  -0.006515   0.014930
   44  O  3 XX    0.000000   0.000375   0.014511   0.013305  -0.015811
   45  O  3 YY    0.000000  -0.000087  -0.006286  -0.006912   0.008572
   46  O  3 ZZ    0.000000  -0.000288  -0.008226  -0.006393   0.007239
   47  O  3 XY   -0.000452   0.000000   0.000000   0.000000   0.000000
   48  O  3 XZ    0.000000  -0.000326  -0.001186   0.005742  -0.004146
   49  O  3 YZ   -0.000129   0.000000   0.000000   0.000000   0.000000

                     11         12         13         14         15
                   -0.4843    -0.4783    -0.4547    -0.3806    -0.3746
                     B2         A1         B1         A2         B1  
    1  S  1  S    0.000000  -0.008675   0.000000   0.000000   0.000000
    2  S  1  S    0.000000   0.023831   0.000000   0.000000   0.000000
    3  S  1  S    0.000000  -0.056054   0.000000   0.000000   0.000000
    4  S  1  S    0.000000  -0.075177   0.000000   0.000000   0.000000
    5  S  1  X    0.000000   0.000000   0.157586   0.000000  -0.009930
    6  S  1  Y   -0.199872   0.000000   0.000000   0.000000   0.000000
    7  S  1  Z    0.000000  -0.194269   0.000000   0.000000   0.000000
    8  S  1  X    0.000000   0.000000  -0.353983   0.000000   0.016095
    9  S  1  Y    0.451921   0.000000   0.000000   0.000000   0.000000
   10  S  1  Z    0.000000   0.436573   0.000000   0.000000   0.000000
   11  S  1  X    0.000000   0.000000   0.054391   0.000000   0.021179
   12  S  1  Y    0.181785   0.000000   0.000000   0.000000   0.000000
   13  S  1  Z    0.000000   0.175949   0.000000   0.000000   0.000000
   14  S  1 XX    0.000000  -0.053187   0.000000   0.000000   0.000000
   15  S  1 YY    0.000000  -0.005052   0.000000   0.000000   0.000000
   16  S  1 ZZ    0.000000   0.058239   0.000000   0.000000   0.000000
   17  S  1 XY    0.000000   0.000000   0.000000  -0.170987   0.000000
   18  S  1 XZ    0.000000   0.000000  -0.022888   0.000000  -0.167518
   19  S  1 YZ    0.036678   0.000000   0.000000   0.000000   0.000000
   20  O  2  S    0.000000   0.002568   0.067506   0.000000   0.001999
   21  O  2  S    0.000000  -0.004951  -0.141524   0.000000  -0.008178
   22  O  2  S    0.000000   0.005279  -0.247627   0.000000  -0.008480
   23  O  2  X    0.000000   0.065121   0.392457   0.000000   0.109122
   24  O  2  Y    0.334350   0.000000   0.000000   0.456141   0.000000
   25  O  2  Z    0.000000   0.330126  -0.093062   0.000000   0.444159
   26  O  2  X    0.000000   0.047564   0.197865   0.000000   0.068180
   27  O  2  Y    0.186485   0.000000   0.000000   0.298195   0.000000
   28  O  2  Z    0.000000   0.182862  -0.057580   0.000000   0.291392
   29  O  2 XX    0.000000   0.010872   0.017636   0.000000   0.003528
   30  O  2 YY    0.000000  -0.002905  -0.009888   0.000000  -0.000413
   31  O  2 ZZ    0.000000  -0.007967  -0.007748   0.000000  -0.003116
   32  O  2 XY    0.028574   0.000000   0.000000   0.019340   0.000000
   33  O  2 XZ    0.000000   0.025085  -0.008601   0.000000   0.020115
   34  O  2 YZ   -0.003363   0.000000   0.000000  -0.001362   0.000000
   35  O  3  S    0.000000   0.002568  -0.067506   0.000000  -0.001999
   36  O  3  S    0.000000  -0.004951   0.141524   0.000000   0.008178
   37  O  3  S    0.000000   0.005279   0.247627   0.000000   0.008480
   38  O  3  X    0.000000  -0.065121   0.392457   0.000000   0.109122
   39  O  3  Y    0.334350   0.000000   0.000000  -0.456141   0.000000
   40  O  3  Z    0.000000   0.330126   0.093062   0.000000  -0.444159
   41  O  3  X    0.000000  -0.047564   0.197865   0.000000   0.068180
   42  O  3  Y    0.186485   0.000000   0.000000  -0.298195   0.000000
   43  O  3  Z    0.000000   0.182862   0.057580   0.000000  -0.291392
   44  O  3 XX    0.000000   0.010872  -0.017636   0.000000  -0.003528
   45  O  3 YY    0.000000  -0.002905   0.009888   0.000000   0.000413
   46  O  3 ZZ    0.000000  -0.007967   0.007748   0.000000   0.003116
   47  O  3 XY   -0.028574   0.000000   0.000000   0.019340   0.000000
   48  O  3 XZ    0.000000  -0.025085  -0.008601   0.000000   0.020115
   49  O  3 YZ   -0.003363   0.000000   0.000000   0.001362   0.000000

                     16         17         18         19         20
                   -0.1943    -0.0886    -0.0544     0.2192     0.3523
                     A1         B2         A1         B1         B2  
    1  S  1  S    0.028066   0.000000   0.008722   0.000000   0.000000
    2  S  1  S   -0.161282   0.000000  -0.077285   0.000000   0.000000
    3  S  1  S    0.084169   0.000000  -0.004203   0.000000   0.000000
    4  S  1  S    1.043587   0.000000   0.652934   0.000000   0.000000
    5  S  1  X    0.000000   0.000000   0.000000  -0.039185   0.000000
    6  S  1  Y    0.000000  -0.213046   0.000000   0.000000   0.286195
    7  S  1  Z    0.093882   0.000000  -0.190429   0.000000   0.000000
    8  S  1  X    0.000000   0.000000   0.000000   0.136039   0.000000
    9  S  1  Y    0.000000   0.555719   0.000000   0.000000  -1.100709
   10  S  1  Z   -0.223233   0.000000   0.507192   0.000000   0.000000
   11  S  1  X    0.000000   0.000000   0.000000   2.125276   0.000000
   12  S  1  Y    0.000000   0.633996   0.000000   0.000000   1.251611
   13  S  1  Z   -0.123207   0.000000   0.675919   0.000000   0.000000
   14  S  1 XX   -0.251972   0.000000  -0.128125   0.000000   0.000000
   15  S  1 YY    0.132055   0.000000   0.084239   0.000000   0.000000
   16  S  1 ZZ    0.119917   0.000000   0.043885   0.000000   0.000000
   17  S  1 XY    0.000000   0.000000   0.000000   0.000000   0.000000
   18  S  1 XZ    0.000000   0.000000   0.000000  -0.062109   0.000000
   19  S  1 YZ    0.000000  -0.015535   0.000000   0.000000  -0.125827
   20  O  2  S    0.036962   0.000000   0.030184  -0.080916   0.000000
   21  O  2  S   -0.071945   0.000000  -0.058884   0.105736   0.000000
   22  O  2  S   -0.236067   0.000000  -0.259304   1.242687   0.000000
   23  O  2  X   -0.292115   0.000000  -0.210395  -0.006210   0.000000
   24  O  2  Y    0.000000  -0.395894   0.000000   0.000000  -0.042273
   25  O  2  Z    0.206806   0.000000  -0.330807  -0.089364   0.000000
   26  O  2  X   -0.233329   0.000000  -0.217226   0.284618   0.000000
   27  O  2  Y    0.000000  -0.383905   0.000000   0.000000  -0.078890
   28  O  2  Z    0.168959   0.000000  -0.330264  -0.161894   0.000000
   29  O  2 XX   -0.010046   0.000000  -0.005660   0.025578   0.000000
   30  O  2 YY    0.004434   0.000000   0.004112  -0.012176   0.000000
   31  O  2 ZZ    0.005612   0.000000   0.001549  -0.013402   0.000000
   32  O  2 XY    0.000000  -0.001718   0.000000   0.000000  -0.038833
   33  O  2 XZ    0.000859   0.000000   0.000026  -0.004183   0.000000
   34  O  2 YZ    0.000000  -0.001283   0.000000   0.000000   0.001762
   35  O  3  S    0.036962   0.000000   0.030184   0.080916   0.000000
   36  O  3  S   -0.071945   0.000000  -0.058884  -0.105736   0.000000
   37  O  3  S   -0.236067   0.000000  -0.259304  -1.242687   0.000000
   38  O  3  X    0.292115   0.000000   0.210395  -0.006210   0.000000
   39  O  3  Y    0.000000  -0.395894   0.000000   0.000000  -0.042273
   40  O  3  Z    0.206806   0.000000  -0.330807   0.089364   0.000000
   41  O  3  X    0.233329   0.000000   0.217226   0.284618   0.000000
   42  O  3  Y    0.000000  -0.383905   0.000000   0.000000  -0.078890
   43  O  3  Z    0.168959   0.000000  -0.330264   0.161894   0.000000
   44  O  3 XX   -0.010046   0.000000  -0.005660  -0.025578   0.000000
   45  O  3 YY    0.004434   0.000000   0.004112   0.012176   0.000000
   46  O  3 ZZ    0.005612   0.000000   0.001549   0.013402   0.000000
   47  O  3 XY    0.000000   0.001718   0.000000   0.000000   0.038833
   48  O  3 XZ   -0.000859   0.000000  -0.000026  -0.004183   0.000000
   49  O  3 YZ    0.000000  -0.001283   0.000000   0.000000   0.001762

                     21         22         23         24         25
                    0.3527     0.4292     0.5196     0.5201     0.6176
                     A1         A1         B2         A1         A1  
    1  S  1  S   -0.017134  -0.099823   0.000000  -0.008012  -0.072337
    2  S  1  S   -0.061061  -0.292144   0.000000  -0.017836  -0.316094
    3  S  1  S   -0.256823  -1.438375   0.000000  -0.110229  -1.205814
    4  S  1  S    0.762217   2.634007   0.000000   0.036302  -0.758994
    5  S  1  X    0.000000   0.000000   0.000000   0.000000   0.000000
    6  S  1  Y    0.000000   0.000000   0.038842   0.000000   0.000000
    7  S  1  Z    0.274284  -0.074083   0.000000  -0.037515   0.042863
    8  S  1  X    0.000000   0.000000   0.000000   0.000000   0.000000
    9  S  1  Y    0.000000   0.000000  -0.152076   0.000000   0.000000
   10  S  1  Z   -1.037467   0.326297   0.000000   0.145567  -0.242530
   11  S  1  X    0.000000   0.000000   0.000000   0.000000   0.000000
   12  S  1  Y    0.000000   0.000000   0.178648   0.000000   0.000000
   13  S  1  Z    1.240446  -0.199886   0.000000  -0.184233  -0.018233
   14  S  1 XX    0.232726   0.396454   0.000000  -0.003574  -0.451973
   15  S  1 YY   -0.019152  -0.262936   0.000000   0.846138   0.212703
   16  S  1 ZZ   -0.213574  -0.133518   0.000000  -0.842564   0.239270
   17  S  1 XY    0.000000   0.000000   0.000000   0.000000   0.000000
   18  S  1 XZ    0.000000   0.000000   0.000000   0.000000   0.000000
   19  S  1 YZ    0.000000   0.000000   0.976585   0.000000   0.000000
   20  O  2  S    0.010442   0.022955   0.000000  -0.003013  -0.058310
   21  O  2  S    0.011307  -0.002956   0.000000   0.011338   0.096301
   22  O  2  S   -0.363054  -0.744795   0.000000   0.025951   0.705158
   23  O  2  X    0.087599   0.239356   0.000000   0.028901  -0.245271
   24  O  2  Y    0.000000   0.000000  -0.100877   0.000000   0.000000
   25  O  2  Z   -0.049284  -0.039463   0.000000   0.098175   0.000416
   26  O  2  X   -0.185183  -0.480417   0.000000   0.030575   1.208890
   27  O  2  Y    0.000000   0.000000  -0.009146   0.000000   0.000000
   28  O  2  Z   -0.028793   0.123139   0.000000   0.004009  -0.192012
   29  O  2 XX   -0.039686  -0.070298   0.000000  -0.000952   0.000859
   30  O  2 YY    0.019275   0.036368   0.000000   0.043447  -0.002475
   31  O  2 ZZ    0.020412   0.033930   0.000000  -0.042495   0.001617
   32  O  2 XY    0.000000   0.000000   0.008351   0.000000   0.000000
   33  O  2 XZ   -0.024257   0.036786   0.000000  -0.008809  -0.006918
   34  O  2 YZ    0.000000   0.000000   0.049746   0.000000   0.000000
   35  O  3  S    0.010442   0.022955   0.000000  -0.003013  -0.058310
   36  O  3  S    0.011307  -0.002956   0.000000   0.011338   0.096301
   37  O  3  S   -0.363054  -0.744795   0.000000   0.025951   0.705158
   38  O  3  X   -0.087599  -0.239356   0.000000  -0.028901   0.245271
   39  O  3  Y    0.000000   0.000000  -0.100877   0.000000   0.000000
   40  O  3  Z   -0.049284  -0.039463   0.000000   0.098175   0.000416
   41  O  3  X    0.185183   0.480417   0.000000  -0.030575  -1.208890
   42  O  3  Y    0.000000   0.000000  -0.009146   0.000000   0.000000
   43  O  3  Z   -0.028793   0.123139   0.000000   0.004009  -0.192012
   44  O  3 XX   -0.039686  -0.070298   0.000000  -0.000952   0.000859
   45  O  3 YY    0.019275   0.036368   0.000000   0.043447  -0.002475
   46  O  3 ZZ    0.020412   0.033930   0.000000  -0.042495   0.001617
   47  O  3 XY    0.000000   0.000000  -0.008351   0.000000   0.000000
   48  O  3 XZ    0.024257  -0.036786   0.000000   0.008809   0.006918
   49  O  3 YZ    0.000000   0.000000   0.049746   0.000000   0.000000

                     26         27         28         29         30
                    0.6182     0.6589     0.6847     0.7137     0.7302
                     B1         B1         A2         A2         B1  
    1  S  1  S    0.000000   0.000000   0.000000   0.000000   0.000000
    2  S  1  S    0.000000   0.000000   0.000000   0.000000   0.000000
    3  S  1  S    0.000000   0.000000   0.000000   0.000000   0.000000
    4  S  1  S    0.000000   0.000000   0.000000   0.000000   0.000000
    5  S  1  X    0.108994  -0.273378   0.000000   0.000000  -0.051272
    6  S  1  Y    0.000000   0.000000   0.000000   0.000000   0.000000
    7  S  1  Z    0.000000   0.000000   0.000000   0.000000   0.000000
    8  S  1  X   -0.184272   1.369234   0.000000   0.000000   0.251149
    9  S  1  Y    0.000000   0.000000   0.000000   0.000000   0.000000
   10  S  1  Z    0.000000   0.000000   0.000000   0.000000   0.000000
   11  S  1  X    0.502585  -0.369792   0.000000   0.000000  -0.248155
   12  S  1  Y    0.000000   0.000000   0.000000   0.000000   0.000000
   13  S  1  Z    0.000000   0.000000   0.000000   0.000000   0.000000
   14  S  1 XX    0.000000   0.000000   0.000000   0.000000   0.000000
   15  S  1 YY    0.000000   0.000000   0.000000   0.000000   0.000000
   16  S  1 ZZ    0.000000   0.000000   0.000000   0.000000   0.000000
   17  S  1 XY    0.000000   0.000000   1.011970   0.270048   0.000000
   18  S  1 XZ    0.828809  -0.167470   0.000000   0.000000   0.175083
   19  S  1 YZ    0.000000   0.000000   0.000000   0.000000   0.000000
   20  O  2  S   -0.009836  -0.047167   0.000000   0.000000  -0.000132
   21  O  2  S   -0.054482   0.087052   0.000000   0.000000  -0.054626
   22  O  2  S    0.404073   0.338679   0.000000   0.000000   0.054722
   23  O  2  X   -0.308540  -0.116591   0.000000   0.000000  -0.074229
   24  O  2  Y    0.000000   0.000000   0.298010  -0.596089   0.000000
   25  O  2  Z    0.244129   0.053339   0.000000   0.000000  -0.611081
   26  O  2  X    0.519699   0.989018   0.000000   0.000000   0.284338
   27  O  2  Y    0.000000   0.000000   0.185824   0.824248   0.000000
   28  O  2  Z    0.109681  -0.322962   0.000000   0.000000   0.768195
   29  O  2 XX    0.010996  -0.042856   0.000000   0.000000  -0.015046
   30  O  2 YY   -0.019375   0.028682   0.000000   0.000000   0.006243
   31  O  2 ZZ    0.008379   0.014174   0.000000   0.000000   0.008803
   32  O  2 XY    0.000000   0.000000  -0.075467  -0.022199   0.000000
   33  O  2 XZ   -0.053360   0.038513   0.000000   0.000000  -0.011302
   34  O  2 YZ    0.000000   0.000000   0.024251   0.004524   0.000000
   35  O  3  S    0.009836   0.047167   0.000000   0.000000   0.000132
   36  O  3  S    0.054482  -0.087052   0.000000   0.000000   0.054626
   37  O  3  S   -0.404073  -0.338679   0.000000   0.000000  -0.054722
   38  O  3  X   -0.308540  -0.116591   0.000000   0.000000  -0.074229
   39  O  3  Y    0.000000   0.000000  -0.298010   0.596089   0.000000
   40  O  3  Z   -0.244129  -0.053339   0.000000   0.000000   0.611081
   41  O  3  X    0.519699   0.989018   0.000000   0.000000   0.284338
   42  O  3  Y    0.000000   0.000000  -0.185824  -0.824248   0.000000
   43  O  3  Z   -0.109681   0.322962   0.000000   0.000000  -0.768195
   44  O  3 XX   -0.010996   0.042856   0.000000   0.000000   0.015046
   45  O  3 YY    0.019375  -0.028682   0.000000   0.000000  -0.006243
   46  O  3 ZZ   -0.008379  -0.014174   0.000000   0.000000  -0.008803
   47  O  3 XY    0.000000   0.000000  -0.075467  -0.022199   0.000000
   48  O  3 XZ   -0.053360   0.038513   0.000000   0.000000  -0.011302
   49  O  3 YZ    0.000000   0.000000  -0.024251  -0.004524   0.000000

                     31         32         33         34         35
                    0.8692     0.8807     0.9696     1.4663     1.6978
                     A1         B2         B1         A1         A1  
    1  S  1  S    0.007414   0.000000   0.000000   0.011258   0.009039
    2  S  1  S    0.035671   0.000000   0.000000  -0.141562  -0.126741
    3  S  1  S    0.129415   0.000000   0.000000  -0.031960  -0.065594
    4  S  1  S   -0.025149   0.000000   0.000000   2.241703  -0.879832
    5  S  1  X    0.000000   0.000000  -0.260998   0.000000   0.000000
    6  S  1  Y    0.000000  -0.031779   0.000000   0.000000   0.000000
    7  S  1  Z   -0.035191   0.000000   0.000000  -0.048891  -0.046815
    8  S  1  X    0.000000   0.000000   0.869004   0.000000   0.000000
    9  S  1  Y    0.000000   0.078563   0.000000   0.000000   0.000000
   10  S  1  Z    0.100062   0.000000   0.000000   0.244009   0.133049
   11  S  1  X    0.000000   0.000000   0.033902   0.000000   0.000000
   12  S  1  Y    0.000000  -0.923576   0.000000   0.000000   0.000000
   13  S  1  Z   -0.909762   0.000000   0.000000   0.312579  -0.226609
   14  S  1 XX    0.128318   0.000000   0.000000   1.149645   0.633802
   15  S  1 YY    0.036010   0.000000   0.000000  -0.612077  -0.331078
   16  S  1 ZZ   -0.164328   0.000000   0.000000  -0.537568  -0.302724
   17  S  1 XY    0.000000   0.000000   0.000000   0.000000   0.000000
   18  S  1 XZ    0.000000   0.000000   0.629729   0.000000   0.000000
   19  S  1 YZ    0.000000  -0.115736   0.000000   0.000000   0.000000
   20  O  2  S   -0.004402   0.000000  -0.035364   0.022358   0.019571
   21  O  2  S    0.077993   0.000000   0.239712   0.603340  -1.098705
   22  O  2  S   -0.071434   0.000000   0.218656  -1.905750   1.184339
   23  O  2  X   -0.149982   0.000000   0.639168  -0.503040  -0.385858
   24  O  2  Y    0.000000  -0.623984   0.000000   0.000000   0.000000
   25  O  2  Z   -0.596674   0.000000   0.036957   0.209199   0.092678
   26  O  2  X    0.119618   0.000000  -0.170235  -0.490480   0.536314
   27  O  2  Y    0.000000   1.058350   0.000000   0.000000   0.000000
   28  O  2  Z    1.038124   0.000000   0.101156  -0.065560   0.002773
   29  O  2 XX   -0.007413   0.000000  -0.069919   0.108022  -0.123241
   30  O  2 YY    0.003526   0.000000   0.014503  -0.078731   0.012644
   31  O  2 ZZ    0.003887   0.000000   0.055417  -0.029291   0.110597
   32  O  2 XY    0.000000  -0.045450   0.000000   0.000000   0.000000
   33  O  2 XZ   -0.041467   0.000000  -0.060834  -0.083825  -0.169010
   34  O  2 YZ    0.000000   0.000281   0.000000   0.000000   0.000000
   35  O  3  S   -0.004402   0.000000   0.035364   0.022358   0.019571
   36  O  3  S    0.077993   0.000000  -0.239712   0.603340  -1.098705
   37  O  3  S   -0.071434   0.000000  -0.218656  -1.905750   1.184339
   38  O  3  X    0.149982   0.000000   0.639168   0.503040   0.385858
   39  O  3  Y    0.000000  -0.623984   0.000000   0.000000   0.000000
   40  O  3  Z   -0.596674   0.000000  -0.036957   0.209199   0.092678
   41  O  3  X   -0.119618   0.000000  -0.170235   0.490480  -0.536314
   42  O  3  Y    0.000000   1.058350   0.000000   0.000000   0.000000
   43  O  3  Z    1.038124   0.000000  -0.101156  -0.065560   0.002773
   44  O  3 XX   -0.007413   0.000000   0.069919   0.108022  -0.123241
   45  O  3 YY    0.003526   0.000000  -0.014503  -0.078731   0.012644
   46  O  3 ZZ    0.003887   0.000000  -0.055417  -0.029291   0.110597
   47  O  3 XY    0.000000   0.045450   0.000000   0.000000   0.000000
   48  O  3 XZ    0.041467   0.000000  -0.060834   0.083825   0.169010
   49  O  3 YZ    0.000000   0.000281   0.000000   0.000000   0.000000

                     36         37         38         39         40
                    1.8206     2.0172     2.0173     2.0782     2.0867
                     B1         A2         B1         B2         A1  
    1  S  1  S    0.000000   0.000000   0.000000   0.000000   0.000645
    2  S  1  S    0.000000   0.000000   0.000000   0.000000   0.025446
    3  S  1  S    0.000000   0.000000   0.000000   0.000000   0.041850
    4  S  1  S    0.000000   0.000000   0.000000   0.000000  -0.010395
    5  S  1  X   -0.022620   0.000000  -0.000330   0.000000   0.000000
    6  S  1  Y    0.000000   0.000000   0.000000  -0.030330   0.000000
    7  S  1  Z    0.000000   0.000000   0.000000   0.000000  -0.008046
    8  S  1  X    0.368477   0.000000  -0.001666   0.000000   0.000000
    9  S  1  Y    0.000000   0.000000   0.000000   0.129890   0.000000
   10  S  1  Z    0.000000   0.000000   0.000000   0.000000   0.041849
   11  S  1  X    1.869529   0.000000   0.036999   0.000000   0.000000
   12  S  1  Y    0.000000   0.000000   0.000000   0.008546   0.000000
   13  S  1  Z    0.000000   0.000000   0.000000   0.000000  -0.005742
   14  S  1 XX    0.000000   0.000000   0.000000   0.000000  -0.098882
   15  S  1 YY    0.000000   0.000000   0.000000   0.000000   0.223972
   16  S  1 ZZ    0.000000   0.000000   0.000000   0.000000  -0.125090
   17  S  1 XY    0.000000   0.022767   0.000000   0.000000   0.000000
   18  S  1 XZ    0.119578   0.000000  -0.021543   0.000000   0.000000
   19  S  1 YZ    0.000000   0.000000   0.000000  -0.167025   0.000000
   20  O  2  S   -0.011821   0.000000  -0.000095   0.000000  -0.001703
   21  O  2  S   -1.311863   0.000000  -0.021230   0.000000   0.078374
   22  O  2  S    2.581078   0.000000   0.038878   0.000000  -0.045084
   23  O  2  X    0.091573   0.000000   0.002289   0.000000   0.050927
   24  O  2  Y    0.000000  -0.005053   0.000000   0.025715   0.000000
   25  O  2  Z    0.048975   0.000000   0.006783   0.000000  -0.004652
   26  O  2  X    0.378261   0.000000  -0.002594   0.000000  -0.041625
   27  O  2  Y    0.000000   0.010428   0.000000  -0.046125   0.000000
   28  O  2  Z   -0.227092   0.000000  -0.014264   0.000000  -0.001812
   29  O  2 XX   -0.178131   0.000000  -0.050105   0.000000  -0.025725
   30  O  2 YY    0.096442   0.000000   0.615278   0.000000  -0.599637
   31  O  2 ZZ    0.081689   0.000000  -0.565173   0.000000   0.625362
   32  O  2 XY    0.000000   0.189733   0.000000  -0.110728   0.000000
   33  O  2 XZ    0.119947   0.000000  -0.182208   0.000000   0.057053
   34  O  2 YZ    0.000000   0.681381   0.000000   0.703952   0.000000
   35  O  3  S    0.011821   0.000000   0.000095   0.000000  -0.001703
   36  O  3  S    1.311863   0.000000   0.021230   0.000000   0.078374
   37  O  3  S   -2.581078   0.000000  -0.038878   0.000000  -0.045084
   38  O  3  X    0.091573   0.000000   0.002289   0.000000  -0.050927
   39  O  3  Y    0.000000   0.005053   0.000000   0.025715   0.000000
   40  O  3  Z   -0.048975   0.000000  -0.006783   0.000000  -0.004652
   41  O  3  X    0.378261   0.000000  -0.002594   0.000000   0.041625
   42  O  3  Y    0.000000  -0.010428   0.000000  -0.046125   0.000000
   43  O  3  Z    0.227092   0.000000   0.014264   0.000000  -0.001812
   44  O  3 XX    0.178131   0.000000   0.050105   0.000000  -0.025725
   45  O  3 YY   -0.096442   0.000000  -0.615278   0.000000  -0.599637
   46  O  3 ZZ   -0.081689   0.000000   0.565173   0.000000   0.625362
   47  O  3 XY    0.000000   0.189733   0.000000   0.110728   0.000000
   48  O  3 XZ    0.119947   0.000000  -0.182208   0.000000  -0.057053
   49  O  3 YZ    0.000000  -0.681381   0.000000   0.703952   0.000000

                     41         42         43         44         45
                    2.1865     2.3018     2.5851     2.6230     2.9174
                     B2         A1         B1         A2         A1  
    1  S  1  S    0.000000  -0.005857   0.000000   0.000000  -0.075936
    2  S  1  S    0.000000  -0.106424   0.000000   0.000000  -0.293302
    3  S  1  S    0.000000  -0.216936   0.000000   0.000000  -1.358023
    4  S  1  S    0.000000  -0.200671   0.000000   0.000000  -1.639416
    5  S  1  X    0.000000   0.000000   0.020838   0.000000   0.000000
    6  S  1  Y    0.088998   0.000000   0.000000   0.000000   0.000000
    7  S  1  Z    0.000000   0.082572   0.000000   0.000000   0.032636
    8  S  1  X    0.000000   0.000000  -0.263467   0.000000   0.000000
    9  S  1  Y   -0.381920   0.000000   0.000000   0.000000   0.000000
   10  S  1  Z    0.000000  -0.394967   0.000000   0.000000  -0.309949
   11  S  1  X    0.000000   0.000000  -0.143979   0.000000   0.000000
   12  S  1  Y   -0.113792   0.000000   0.000000   0.000000   0.000000
   13  S  1  Z    0.000000  -0.177695   0.000000   0.000000  -0.079551
   14  S  1 XX    0.000000   0.393597   0.000000   0.000000  -1.249842
   15  S  1 YY    0.000000  -0.075142   0.000000   0.000000   0.631591
   16  S  1 ZZ    0.000000  -0.318455   0.000000   0.000000   0.618251
   17  S  1 XY    0.000000   0.000000   0.000000   0.824211   0.000000
   18  S  1 XZ    0.000000   0.000000   0.766597   0.000000   0.000000
   19  S  1 YZ   -0.180433   0.000000   0.000000   0.000000   0.000000
   20  O  2  S    0.000000   0.000895   0.004279   0.000000  -0.047000
   21  O  2  S    0.000000  -0.394336   0.257848   0.000000  -0.412816
   22  O  2  S    0.000000   0.409829  -0.368220   0.000000   1.846624
   23  O  2  X    0.000000  -0.186384   0.078139   0.000000   0.353286
   24  O  2  Y   -0.079109   0.000000   0.000000   0.033567   0.000000
   25  O  2  Z    0.000000  -0.031723   0.007815   0.000000  -0.090284
   26  O  2  X    0.000000   0.289283  -0.131403   0.000000   0.972671
   27  O  2  Y    0.215078   0.000000   0.000000   0.274341   0.000000
   28  O  2  Z    0.000000   0.212342   0.296620   0.000000  -0.210464
   29  O  2 XX    0.000000   0.330878   0.128336   0.000000   0.849160
   30  O  2 YY    0.000000  -0.143426   0.114789   0.000000  -0.476603
   31  O  2 ZZ    0.000000  -0.187452  -0.243125   0.000000  -0.372557
   32  O  2 XY    0.734747   0.000000   0.000000   0.802418   0.000000
   33  O  2 XZ    0.000000   0.642894   0.771015   0.000000  -0.428237
   34  O  2 YZ    0.104819   0.000000   0.000000  -0.211989   0.000000
   35  O  3  S    0.000000   0.000895  -0.004279   0.000000  -0.047000
   36  O  3  S    0.000000  -0.394336  -0.257848   0.000000  -0.412816
   37  O  3  S    0.000000   0.409829   0.368220   0.000000   1.846624
   38  O  3  X    0.000000   0.186384   0.078139   0.000000  -0.353286
   39  O  3  Y   -0.079109   0.000000   0.000000  -0.033567   0.000000
   40  O  3  Z    0.000000  -0.031723  -0.007815   0.000000  -0.090284
   41  O  3  X    0.000000  -0.289283  -0.131403   0.000000  -0.972671
   42  O  3  Y    0.215078   0.000000   0.000000  -0.274341   0.000000
   43  O  3  Z    0.000000   0.212342  -0.296620   0.000000  -0.210464
   44  O  3 XX    0.000000   0.330878  -0.128336   0.000000   0.849160
   45  O  3 YY    0.000000  -0.143426  -0.114789   0.000000  -0.476603
   46  O  3 ZZ    0.000000  -0.187452   0.243125   0.000000  -0.372557
   47  O  3 XY   -0.734747   0.000000   0.000000   0.802418   0.000000
   48  O  3 XZ    0.000000  -0.642894   0.771015   0.000000   0.428237
   49  O  3 YZ    0.104819   0.000000   0.000000   0.211989   0.000000

                     46
                    2.9750
                     B1  
    1  S  1  S    0.000000
    2  S  1  S    0.000000
    3  S  1  S    0.000000
    4  S  1  S    0.000000
    5  S  1  X   -0.218350
    6  S  1  Y    0.000000
    7  S  1  Z    0.000000
    8  S  1  X    1.856079
    9  S  1  Y    0.000000
   10  S  1  Z    0.000000
   11  S  1  X    0.506005
   12  S  1  Y    0.000000
   13  S  1  Z    0.000000
   14  S  1 XX    0.000000
   15  S  1 YY    0.000000
   16  S  1 ZZ    0.000000
   17  S  1 XY    0.000000
   18  S  1 XZ    0.421440
   19  S  1 YZ    0.000000
   20  O  2  S   -0.044913
   21  O  2  S   -0.569597
   22  O  2  S    1.708640
   23  O  2  X    0.204508
   24  O  2  Y    0.000000
   25  O  2  Z   -0.001265
   26  O  2  X    0.887296
   27  O  2  Y    0.000000
   28  O  2  Z   -0.122314
   29  O  2 XX    0.889237
   30  O  2 YY   -0.423682
   31  O  2 ZZ   -0.465555
   32  O  2 XY    0.000000
   33  O  2 XZ   -0.113189
   34  O  2 YZ    0.000000
   35  O  3  S    0.044913
   36  O  3  S    0.569597
   37  O  3  S   -1.708640
   38  O  3  X    0.204508
   39  O  3  Y    0.000000
   40  O  3  Z    0.001265
   41  O  3  X    0.887296
   42  O  3  Y    0.000000
   43  O  3  Z    0.122314
   44  O  3 XX   -0.889237
   45  O  3 YY    0.423682
   46  O  3 ZZ    0.465555
   47  O  3 XY    0.000000
   48  O  3 XZ   -0.113189
   49  O  3 YZ    0.000000
 ...... END OF RHF CALCULATION ......
 STEP CPU TIME =     4.91 TOTAL CPU TIME =        5.1 (    0.1 MIN)
 TOTAL WALL CLOCK TIME=        5.1 SECONDS, CPU UTILIZATION IS  99.80%

     ---------------------------------------------------------------------
     PROPERTIES FOR THE PBE      DFT FUNCTIONAL (RHF  TYPE) DENSITY MATRIX
     ---------------------------------------------------------------------

          -----------------
          ENERGY COMPONENTS
          -----------------

         WAVEFUNCTION NORMALIZATION =       1.0000000000

                ONE ELECTRON ENERGY =    -988.2620678434
                TWO ELECTRON ENERGY =     322.7532741929
           NUCLEAR REPULSION ENERGY =     117.4340592050
                                      ------------------
                       TOTAL ENERGY =    -548.0747344455

 ELECTRON-ELECTRON POTENTIAL ENERGY =     322.7532741929
  NUCLEUS-ELECTRON POTENTIAL ENERGY =   -1537.2439781149
   NUCLEUS-NUCLEUS POTENTIAL ENERGY =     117.4340592050
                                      ------------------
             TOTAL POTENTIAL ENERGY =   -1097.0566447170
               TOTAL KINETIC ENERGY =     548.9819102715
                 VIRIAL RATIO (V/T) =       1.9983475306

          ---------------------------------------
          MULLIKEN AND LOWDIN POPULATION ANALYSES
          ---------------------------------------

     ATOMIC MULLIKEN POPULATION IN EACH MOLECULAR ORBITAL

                      1          2          3          4          5

                  2.000000   2.000000   2.000000   2.000000   2.000000

    1             2.000082   0.002372   0.000824   2.003925   1.998675
    2            -0.000041   0.998814   0.999588  -0.001963   0.000663
    3            -0.000041   0.998814   0.999588  -0.001963   0.000663

                      6          7          8          9         10

                  2.000000   2.000000   2.000000   2.000000   2.000000

    1             1.999935   1.999874   0.757260   0.475370   0.467432
    2             0.000032   0.000063   0.621370   0.762315   0.766284
    3             0.000032   0.000063   0.621370   0.762315   0.766284

                     11         12         13         14         15

                  2.000000   2.000000   2.000000   2.000000   2.000000

    1             0.890996   0.880258   0.276092   0.191834   0.188801
    2             0.554502   0.559871   0.861954   0.904083   0.905599
    3             0.554502   0.559871   0.861954   0.904083   0.905599

                     16

                  2.000000

    1             1.456511
    2             0.271745
    3             0.271745

               ----- POPULATIONS IN EACH AO -----
                             MULLIKEN      LOWDIN
              1  S  1  S      2.00027     1.99572
              2  S  1  S      2.01102     1.94908
              3  S  1  S      0.87396     0.52489
              4  S  1  S      1.23540     0.67226
              5  S  1  X      1.99734     1.95870
              6  S  1  Y      1.99624     1.95384
              7  S  1  Z      1.99670     1.95816
              8  S  1  X      0.72548     0.62622
              9  S  1  Y      0.62427     0.57215
             10  S  1  Z      0.72258     0.67930
             11  S  1  X      0.02152     0.23977
             12  S  1  Y      0.26415     0.33931
             13  S  1  Z      0.28687     0.37480
             14  S  1 XX      0.11638     0.44382
             15  S  1 YY      0.32298     0.33716
             16  S  1 ZZ      0.19183     0.33801
             17  S  1 XY      0.19697     0.23883
             18  S  1 XZ      0.00627     0.24291
             19  S  1 YZ      0.00000     0.00605
             20  O  2  S      1.99815     1.98034
             21  O  2  S      0.83427     0.64735
             22  O  2  S      0.92585     0.51395
             23  O  2  X      1.04351     1.00730
             24  O  2  Y      0.90102     0.84988
             25  O  2  Z      0.99779     0.95271
             26  O  2  X      0.35878     0.51495
             27  O  2  Y      0.54743     0.58210
             28  O  2  Z      0.56790     0.60564
             29  O  2 XX      0.00290     0.21291
             30  O  2 YY      0.00757     0.19106
             31  O  2 ZZ      0.01001     0.18938
             32  O  2 XY      0.00953     0.01270
             33  O  2 XZ      0.00015     0.01401
             34  O  2 YZ      0.00000     0.00023
             35  O  3  S      1.99815     1.98034
             36  O  3  S      0.83427     0.64735
             37  O  3  S      0.92585     0.51395
             38  O  3  X      1.04351     1.00730
             39  O  3  Y      0.90102     0.84988
             40  O  3  Z      0.99779     0.95271
             41  O  3  X      0.35878     0.51495
             42  O  3  Y      0.54743     0.58210
             43  O  3  Z      0.56790     0.60564
             44  O  3 XX      0.00290     0.21291
             45  O  3 YY      0.00757     0.19106
             46  O  3 ZZ      0.01001     0.18938
             47  O  3 XY      0.00953     0.01270
             48  O  3 XZ      0.00015     0.01401
             49  O  3 YZ      0.00000     0.00023

          ----- MULLIKEN ATOMIC OVERLAP POPULATIONS -----
          (OFF-DIAGONAL ELEMENTS NEED TO BE MULTIPLIED BY 2)

             1           2           3

    1   15.3629829
    2    0.1136296   8.0493743
    3    0.1136296   0.0418750   8.0493743

          TOTAL MULLIKEN AND LOWDIN ATOMIC POPULATIONS
       ATOM         MULL.POP.    CHARGE          LOW.POP.     CHARGE
    1 S            15.590242    0.409758        15.450989    0.549011
    2 O             8.204879   -0.204879         8.274505   -0.274505
    3 O             8.204879   -0.204879         8.274505   -0.274505

          MULLIKEN SPHERICAL HARMONIC POPULATIONS
       ATOM           S       P       D      F      G      H      I    TOTAL
    1 S             6.12    8.64    0.83   0.00   0.00   0.00   0.00   15.59
    2 O             3.76    4.42    0.03   0.00   0.00   0.00   0.00    8.20
    3 O             3.76    4.42    0.03   0.00   0.00   0.00   0.00    8.20

          -------------------------------
          BOND ORDER AND VALENCE ANALYSIS     BOND ORDER THRESHOLD=0.050
          -------------------------------

                   BOND                       BOND                       BOND
  ATOM PAIR DIST  ORDER      ATOM PAIR DIST  ORDER      ATOM PAIR DIST  ORDER
    1   2  1.300  1.997        1   3  1.300  1.997        2   3  2.561  0.193

                       TOTAL       BONDED        FREE
      ATOM            VALENCE     VALENCE     VALENCE
    1 S                 3.994       3.994       0.000
    2 O                 2.190       2.190       0.000
    3 O                 2.190       2.190       0.000

          ---------------------
          ELECTROSTATIC MOMENTS
          ---------------------

 POINT   1           X           Y           Z (BOHR)    CHARGE
                 0.000000    0.000000    0.000000        0.00 (A.U.)
         DX          DY          DZ         /D/  (DEBYE)
     0.000000    0.000000    0.415252    0.415252
 ...... END OF PROPERTY EVALUATION ......
 STEP CPU TIME =     0.01 TOTAL CPU TIME =        5.1 (    0.1 MIN)
 TOTAL WALL CLOCK TIME=        5.1 SECONDS, CPU UTILIZATION IS 100.00%
               580000  WORDS OF DYNAMIC MEMORY USED
 EXECUTION OF GAMESS TERMINATED NORMALLY Thu Feb 26 00:14:52 2015
 DDI: 263624 bytes (0.3 MB / 0 MWords) used by master data server.

 ----------------------------------------
 CPU timing information for all processes
 ========================================
 0: 5.73 + 0.31 = 5.105
 ----------------------------------------
 ddikick.x: exited gracefully.
----- accounting info -----
Files used on the master node dftfe.crc.nd.edu were:
-rw-r--r-- 1 pmehta1 campus   37475 Feb 26 00:14 /tmp/gamess.dat
-rw-r--r-- 1 pmehta1 campus     142 Feb 26 00:14 /tmp/gamess.F05
-rw-r--r-- 1 pmehta1 campus 2160288 Feb 26 00:14 /tmp/gamess.F08
-rw-r--r-- 1 pmehta1 campus 1220440 Feb 26 00:14 /tmp/gamess.F10
Thu Feb 26 00:14:55 EST 2015
0.247u 0.173s 0:08.53 4.8%	0+0k 0+112io 0pf+0w
