----- GAMESS execution script 'rungms' -----
This job is running on host dftfe.crc.nd.edu
under operating system Linux at Thu Feb 26 00:17:30 EST 2015
Available scratch disk space (Kbyte units) at beginning of the job is
Filesystem     1K-blocks     Used Available Use% Mounted on
/dev/sda2      147771864 22814024 117451408  17% /
GAMESS temporary binary files will be written to /tmp
GAMESS supplementary output files will be written to /tmp
Copying input file gamess.inp to your run's scratch directory...

 Distributed Data Interface kickoff program.
 Initiating 1 compute processes on 1 nodes to run the following command:
 /opt/crc/gamess/2012R1/gamess/gamess.00.x gamess 

          ******************************************************
          *         GAMESS VERSION =  1 MAY 2012 (R1)          *
          *             FROM IOWA STATE UNIVERSITY             *
          * M.W.SCHMIDT, K.K.BALDRIDGE, J.A.BOATZ, S.T.ELBERT, *
          *   M.S.GORDON, J.H.JENSEN, S.KOSEKI, N.MATSUNAGA,   *
          *          K.A.NGUYEN, S.J.SU, T.L.WINDUS,           *
          *       TOGETHER WITH M.DUPUIS, J.A.MONTGOMERY       *
          *         J.COMPUT.CHEM.  14, 1347-1363(1993)        *
          **************** 64 BIT LINUX VERSION ****************

  SINCE 1993, STUDENTS AND POSTDOCS WORKING AT IOWA STATE UNIVERSITY
  AND ALSO IN THEIR VARIOUS JOBS AFTER LEAVING ISU HAVE MADE IMPORTANT
  CONTRIBUTIONS TO THE CODE:
     IVANA ADAMOVIC, CHRISTINE AIKENS, YURI ALEXEEV, POOJA ARORA,
     ANDREY ASADCHEV, ROB BELL, PRADIPTA BANDYOPADHYAY, JONATHAN BENTZ,
     BRETT BODE, GALINA CHABAN, WEI CHEN, CHEOL HO CHOI, PAUL DAY,
     ALBERT DEFUSCO, TIM DUDLEY, DMITRI FEDOROV, GRAHAM FLETCHER,
     MARK FREITAG, KURT GLAESEMANN, DAN KEMP, GRANT MERRILL,
     NORIYUKI MINEZAWA, JONATHAN MULLIN, TAKESHI NAGATA,
     SEAN NEDD, HEATHER NETZLOFF, BOSILJKA NJEGIC, RYAN OLSON, MIKE PAK,
     JIM SHOEMAKER, LYUDMILA SLIPCHENKO, SAROM SOK, JIE SONG,
     TETSUYA TAKETSUGU, SIMON WEBB, SOOHAENG YOO, FEDERICO ZAHARIEV

  ADDITIONAL CODE HAS BEEN PROVIDED BY COLLABORATORS IN OTHER GROUPS:
     IOWA STATE UNIVERSITY:
          JOE IVANIC, LAIMUTIS BYTAUTAS, KLAUS RUEDENBERG
     UNIVERSITY OF TOKYO: KIMIHIKO HIRAO, TAKAHITO NAKAJIMA,
          TAKAO TSUNEDA, MUNEAKI KAMIYA, SUSUMU YANAGISAWA,
          KIYOSHI YAGI, MAHITO CHIBA, SEIKEN TOKURA, NAOAKI KAWAKAMI
     UNIVERSITY OF AARHUS: FRANK JENSEN
     UNIVERSITY OF IOWA: VISVALDAS KAIRYS, HUI LI
     NATIONAL INST. OF STANDARDS AND TECHNOLOGY: WALT STEVENS, DAVID GARMER
     UNIVERSITY OF PISA: BENEDETTA MENNUCCI, JACOPO TOMASI
     UNIVERSITY OF MEMPHIS: HENRY KURTZ, PRAKASHAN KORAMBATH
     UNIVERSITY OF ALBERTA: TOBY ZENG, MARIUSZ KLOBUKOWSKI
     UNIVERSITY OF NEW ENGLAND: MARK SPACKMAN
     MIE UNIVERSITY: HIROAKI UMEDA
     MICHIGAN STATE UNIVERSITY:
          KAROL KOWALSKI, MARTA WLOCH, JEFFREY GOUR, JESSE LUTZ, PIOTR PIECUCH
     UNIVERSITY OF SILESIA: MONIKA MUSIAL, STANISLAW KUCHARSKI
     FACULTES UNIVERSITAIRES NOTRE-DAME DE LA PAIX:
          OLIVIER QUINET, BENOIT CHAMPAGNE
     UNIVERSITY OF CALIFORNIA - SANTA BARBARA: BERNARD KIRTMAN
     INSTITUTE FOR MOLECULAR SCIENCE:
          KAZUYA ISHIMURA, MICHIO KATOUDA, AND SHIGERU NAGASE
     UNIVERSITY OF NOTRE DAME: DAN CHIPMAN
     KYUSHU UNIVERSITY:
          HARUYUKI NAKANO,
          FENG LONG GU, JACEK KORCHOWIEC, MARCIN MAKOWSKI, AND YURIKO AOKI,
          HIROTOSHI MORI AND EISAKU MIYOSHI
     PENNSYLVANIA STATE UNIVERSITY:
          TZVETELIN IORDANOV, CHET SWALINA, JONATHAN SKONE,
          SHARON HAMMES-SCHIFFER
     WASEDA UNIVERSITY:
          MASATO KOBAYASHI, TOMOKO AKAMA, TSUGUKI TOUMA,
          TAKESHI YOSHIKAWA, YASUHIRO IKABATA, HIROMI NAKAI
     UNIVERSITY OF NEBRASKA:
          PEIFENG SU, DEJUN SI, NANDUN THELLAMUREGE, YALI WANG, HUI LI
     UNIVERSITY OF ZURICH:
          ROBERTO PEVERATI, KIM BALDRIDGE
     N. COPERNICUS UNIVERSITY AND JACKSON STATE UNIVERSITY:
          MARIA BARYSZ

 EXECUTION OF GAMESS BEGUN Thu Feb 26 00:17:30 2015

            ECHO OF THE FIRST FEW INPUT CARDS -
 INPUT CARD> $BASIS GBASIS=PC1 $END                                                         
 INPUT CARD> $CONTRL COORD=ZMT ISPHER=1 RUNTYP=ENERGY DFTTYP=PBE $END                       
 INPUT CARD>                                                                                
 INPUT CARD> $DATA                                                                          
 INPUT CARD>Title                                                                           
 INPUT CARD>Cnv 2                                                                           
 INPUT CARD>                                                                                
 INPUT CARD>S                                                                               
 INPUT CARD>O 1 1.50                                                                        
 INPUT CARD>O 1 1.50 2 170.0                                                                
 INPUT CARD> $END                                                                           
    1000000 WORDS OF MEMORY AVAILABLE

     BASIS OPTIONS
     -------------
     GBASIS=PC1          IGAUSS=       0      POLAR=NONE    
     NDFUNC=       0     NFFUNC=       0     DIFFSP=       F
     NPFUNC=       0      DIFFS=       F     BASNAM=        


     RUN TITLE
     ---------
 Title                                                                           

 THE POINT GROUP OF THE MOLECULE IS CNV     
 THE ORDER OF THE PRINCIPAL AXIS IS     2

 YOUR FULLY SUBSTITUTED Z-MATRIX IS
 S   
 O      1   1.5000000
 O      1   1.5000000  2  170.0000

 THE MOMENTS OF INERTIA ARE (AMU-ANGSTROM**2)
 IXX=     0.273   IYY=    71.430   IZZ=    71.704

 ATOM      ATOMIC                      COORDINATES (BOHR)
           CHARGE         X                   Y                   Z
 S          16.0     0.0000000000        0.0000000000       -0.1235596334
 O           8.0    -2.8238025147        0.0000000000        0.1234910746
 O           8.0     2.8238025147        0.0000000000        0.1234910746

          INTERNUCLEAR DISTANCES (ANGS.)
          ------------------------------

                1 S          2 O          3 O     

   1 S       0.0000000    1.5000000 *  1.5000000 *
   2 O       1.5000000 *  0.0000000    2.9885841 *
   3 O       1.5000000 *  2.9885841 *  0.0000000  

  * ... LESS THAN  3.000


     ATOMIC BASIS SET
     ----------------
 THE CONTRACTED PRIMITIVE FUNCTIONS HAVE BEEN UNNORMALIZED
 THE CONTRACTED BASIS FUNCTIONS ARE NOW NORMALIZED TO UNITY

  SHELL TYPE  PRIMITIVE        EXPONENT          CONTRACTION COEFFICIENT(S)

 S         

      1   S       1         55510.0000000    0.000587229760
      1   S       2          8326.7000000    0.004532413947
      1   S       3          1895.6000000    0.023265261648
      1   S       4           536.7700000    0.089696133027
      1   S       5           174.6700000    0.254098332277
      1   S       6            62.5780000    0.438665087637
      1   S       7            23.5730000    0.314547135094
      1   S       8             5.8908000    0.032727897102

      2   S       9          8326.7000000   -0.000019755715
      2   S      10          1895.6000000   -0.000043822381
      2   S      11           536.7700000   -0.001730264906
      2   S      12           174.6700000   -0.009381263460
      2   S      13            62.5780000   -0.064050766303
      2   S      14            23.5730000   -0.082478179196
      2   S      15             5.8908000    0.478342956889
      2   S      16             2.1852000    0.626896670208

      3   S      17          1895.6000000    0.000016227260
      3   S      18           536.7700000    0.000191135619
      3   S      19           174.6700000    0.001952069674
      3   S      20            62.5780000    0.010578701087
      3   S      21            23.5730000    0.022164934551
      3   S      22             5.8908000   -0.184968323118
      3   S      23             2.1852000   -0.480920750976
      3   S      24             0.4528200    1.243822243872

      4   S      25             0.1620200    1.000000000000

      5   P      26           395.4500000    0.004642761329
      5   P      27            92.8340000    0.036023396489
      5   P      28            29.2660000    0.149058869978
      5   P      29            10.5950000    0.360033266263
      5   P      30             4.0272000    0.455756476221
      5   P      31             1.5484000    0.206167664178

      6   P      32            92.8340000    0.000169901442
      6   P      33            29.2660000   -0.002541839934
      6   P      34            10.5950000   -0.007867614595
      6   P      35             4.0272000   -0.037231009184
      6   P      36             1.5484000    0.161417246830
      6   P      37             0.4613400    0.902230419976

      7   P      38             0.1313100    1.000000000000

      8   D      39             0.5500000    1.000000000000

 O         

     15   S      40          2306.7000000    0.005424388755
     15   S      41           347.1500000    0.040474749465
     15   S      42            78.8900000    0.180219634554
     15   S      43            21.8760000    0.462370311787
     15   S      44             6.6646000    0.454888396263

     16   S      45           347.1500000   -0.000655003786
     16   S      46            78.8900000   -0.005362052952
     16   S      47            21.8760000   -0.074902158894
     16   S      48             6.6646000   -0.181442579655
     16   S      49             1.0669000    1.102006874042

     17   S      50             0.3070000    1.000000000000

     18   P      51            17.0220000    0.068979967443
     18   P      52             3.6838000    0.351985516325
     18   P      53             0.9923400    0.724036547822

     19   P      54             0.2448700    1.000000000000

     20   D      55             1.0000000    1.000000000000

 TOTAL NUMBER OF BASIS SET SHELLS             =   20
 NUMBER OF CARTESIAN GAUSSIAN BASIS FUNCTIONS =   49
 NOTE: THIS RUN WILL RESTRICT THE MO VARIATION SPACE TO SPHERICAL HARMONICS.
 THE NUMBER OF ORBITALS KEPT IN THE VARIATIONAL SPACE WILL BE PRINTED LATER.
 NUMBER OF ELECTRONS                          =   32
 CHARGE OF MOLECULE                           =    0
 SPIN MULTIPLICITY                            =    1
 NUMBER OF OCCUPIED ORBITALS (ALPHA)          =   16
 NUMBER OF OCCUPIED ORBITALS (BETA )          =   16
 TOTAL NUMBER OF ATOMS                        =    3
 THE NUCLEAR REPULSION ENERGY IS      101.6451544381

     LEBEDEV GRID-BASED DFT OPTIONS
     ------------------------------
     DFTTYP=PBE     
     NRAD  =      96     NLEB  =     302
     NRAD0 =      24     NLEB0 =     110
     SWOFF =    5.00E-03 (PURE SCF -> DFT)
     SWITCH=    3.00E-04 (COARSE -> TIGHT GRID)
     THRESH=    0.00E+00 GTHRE=    1.00E+00

 GRIMME'S EMPIRICAL DISPERSION CORRECTION= F

     $CONTRL OPTIONS
     ---------------
 SCFTYP=RHF          RUNTYP=ENERGY       EXETYP=RUN     
 MPLEVL=       0     CITYP =NONE         CCTYP =NONE         VBTYP =NONE    
 DFTTYP=PBE          TDDFT =NONE    
 MULT  =       1     ICHARG=       0     NZVAR =       0     COORD =ZMT     
 PP    =NONE         RELWFN=NONE         LOCAL =NONE         NUMGRD=       F
 ISPHER=       1     NOSYM =       0     MAXIT =      30     UNITS =ANGS    
 PLTORB=       F     MOLPLT=       F     AIMPAC=       F     FRIEND=        
 NPRINT=       7     IREST =       0     GEOM  =INPUT   
 NORMF =       0     NORMP =       0     ITOL  =      20     ICUT  =       9
 INTTYP=BEST         GRDTYP=BEST         QMTTOL= 1.0E-06

     $SYSTEM OPTIONS
     ---------------
  REPLICATED MEMORY=     1000000 WORDS (ON EVERY NODE).
 DISTRIBUTED MEMDDI=           0 MILLION WORDS IN AGGREGATE,
 MEMDDI DISTRIBUTED OVER   1 PROCESSORS IS           0 WORDS/PROCESSOR.
 TOTAL MEMORY REQUESTED ON EACH PROCESSOR=     1000000 WORDS.
 TIMLIM=      525600.00 MINUTES, OR     365.0 DAYS.
 PARALL= F  BALTYP=  DLB     KDIAG=    0  COREFL= F
 MXSEQ2=     300 MXSEQ3=     150

          ----------------
          PROPERTIES INPUT
          ----------------

     MOMENTS            FIELD           POTENTIAL          DENSITY
 IEMOM =       1   IEFLD =       0   IEPOT =       0   IEDEN =       0
 WHERE =COMASS     WHERE =NUCLEI     WHERE =NUCLEI     WHERE =NUCLEI  
 OUTPUT=BOTH       OUTPUT=BOTH       OUTPUT=BOTH       OUTPUT=BOTH    
 IEMINT=       0   IEFINT=       0                     IEDINT=       0
                                                       MORB  =       0
          EXTRAPOLATION IN EFFECT
          DIIS IN EFFECT
 ORBITAL PRINTING OPTION: NPREO=     1    49     2     1

     -------------------------------
     INTEGRAL TRANSFORMATION OPTIONS
     -------------------------------
     NWORD  =            0
     CUTOFF = 1.0E-09     MPTRAN =       0
     DIRTRF =       F     AOINTS =DUP     

          ----------------------
          INTEGRAL INPUT OPTIONS
          ----------------------
 NOPK  =       1 NORDER=       0 SCHWRZ=       F

   --- ENCODED Z MATRIX ---
 COORD  TYPE   I   J   K   L   M   N
    1      1    3   1
    2      1    2   1
    3      2    2   1   3

 THE DETERMINANT OF THE G MATRIX IS 10**(    -4)

 THE DETERMINANT OF THE G MATRIX IS 10**(    -4)
 * * * WARNING * * *
 YOUR B MATRIX HAS A SMALL DETERMINANT.
 THIS SUGGESTS YOU MAY HAVE BADLY CHOSEN COORDINATES.

     ------------------------------------------
     THE POINT GROUP IS CNV, NAXIS= 2, ORDER= 4
     ------------------------------------------

 -- VARIATIONAL SPACE WILL BE RESTRICTED TO PURE SPHERICAL HARMONICS ONLY --
 AFTER EXCLUDING CONTAMINANT COMBINATIONS FROM THE CARTESIAN GAUSSIAN BASIS
 SET, THE NUMBER OF SPHERICAL HARMONICS KEPT IN THE VARIATION SPACE IS   46

     DIMENSIONS OF THE SYMMETRY SUBSPACES ARE
 A1  =   19     A2  =    5     B1  =   14     B2  =    8

 ..... DONE SETTING UP THE RUN .....
 STEP CPU TIME =     0.01 TOTAL CPU TIME =        0.0 (    0.0 MIN)
 TOTAL WALL CLOCK TIME=        0.0 SECONDS, CPU UTILIZATION IS  50.00%

          ********************
          1 ELECTRON INTEGRALS
          ********************
 ...... END OF ONE-ELECTRON INTEGRALS ......
 STEP CPU TIME =     0.00 TOTAL CPU TIME =        0.0 (    0.0 MIN)
 TOTAL WALL CLOCK TIME=        0.0 SECONDS, CPU UTILIZATION IS  50.00%

          -------------
          GUESS OPTIONS
          -------------
          GUESS =HUCKEL            NORB  =       0          NORDER=       0
          MIX   =       F          PRTMO =       F          PUNMO =       F
          TOLZ  = 1.0E-08          TOLE  = 1.0E-05
          SYMDEN=       F          PURIFY=       F

 INITIAL GUESS ORBITALS GENERATED BY HUCKEL   ROUTINE.
 HUCKEL GUESS REQUIRES     21583 WORDS.

 STATISTICS FOR GENERATION OF SYMMETRY ORBITAL -Q- MATRIX
 NUMBER OF CARTESIAN ATOMIC ORBITALS=         49
 NUMBER OF SPHERICAL CONTAMINANTS DROPPED=     3
 NUMBER OF LINEARLY DEPENDENT MOS DROPPED=     0
 TOTAL NUMBER OF MOS IN VARIATION SPACE=      46

 SYMMETRIES FOR INITIAL GUESS ORBITALS FOLLOW.   BOTH SET(S).
    16 ORBITALS ARE OCCUPIED (    7 CORE ORBITALS).
     8=A1       9=?B1     10=A1      11=B2      12=A1      13=B1      14=A2  
    15=B1      16=?A1     17=B2      18=A1      19=B1      20=A1      21=A1  
    22=A1      23=A1      24=A1      25=A1      26=A1  
 ...... END OF INITIAL ORBITAL SELECTION ......
 STEP CPU TIME =     0.01 TOTAL CPU TIME =        0.0 (    0.0 MIN)
 TOTAL WALL CLOCK TIME=        0.0 SECONDS, CPU UTILIZATION IS  66.67%

                    ----------------------
                    AO INTEGRAL TECHNOLOGY
                    ----------------------
     S,P,L SHELL ROTATED AXIS INTEGRALS, REPROGRAMMED BY
        KAZUYA ISHIMURA (IMS) AND JOSE SIERRA (SYNSTAR).
     S,P,D,L SHELL ROTATED AXIS INTEGRALS PROGRAMMED BY
        KAZUYA ISHIMURA (INSTITUTE FOR MOLECULAR SCIENCE).
     S,P,D,F,G SHELL TO TOTAL QUARTET ANGULAR MOMENTUM SUM 5,
        ERIC PROGRAM BY GRAHAM FLETCHER (ELORET AND NASA ADVANCED
        SUPERCOMPUTING DIVISION, AMES RESEARCH CENTER).
     S,P,D,F,G,L SHELL GENERAL RYS QUADRATURE PROGRAMMED BY
        MICHEL DUPUIS (PACIFIC NORTHWEST NATIONAL LABORATORY).

          --------------------
          2 ELECTRON INTEGRALS
          --------------------

 THE -PK- OPTION IS OFF, THE INTEGRALS ARE NOT IN SUPERMATRIX FORM.
 STORING   15000 INTEGRALS/RECORD ON DISK, USING 12 BYTES/INTEGRAL.
 TWO ELECTRON INTEGRAL EVALUATION REQUIRES   90606 WORDS OF MEMORY.
 II,JST,KST,LST =  1  1  1  1 NREC =         1 INTLOC =    1
 II,JST,KST,LST =  2  1  1  1 NREC =         1 INTLOC =    2
 II,JST,KST,LST =  3  1  1  1 NREC =         1 INTLOC =    7
 II,JST,KST,LST =  4  1  1  1 NREC =         1 INTLOC =   22
 II,JST,KST,LST =  5  1  1  1 NREC =         1 INTLOC =   56
 II,JST,KST,LST =  6  1  1  1 NREC =         1 INTLOC =  125
 II,JST,KST,LST =  7  1  1  1 NREC =         1 INTLOC =  329
 II,JST,KST,LST =  8  1  1  1 NREC =         1 INTLOC =  776
 II,JST,KST,LST =  9  1  1  1 NREC =         1 INTLOC = 2864
 II,JST,KST,LST = 10  1  1  1 NREC =         1 INTLOC = 2864
 II,JST,KST,LST = 11  1  1  1 NREC =         1 INTLOC = 2864
 II,JST,KST,LST = 12  1  1  1 NREC =         1 INTLOC = 2864
 II,JST,KST,LST = 13  1  1  1 NREC =         1 INTLOC = 2864
 II,JST,KST,LST = 14  1  1  1 NREC =         1 INTLOC = 2864
 II,JST,KST,LST = 15  1  1  1 NREC =         1 INTLOC = 2864
 II,JST,KST,LST = 16  1  1  1 NREC =         1 INTLOC = 5085
 II,JST,KST,LST = 17  1  1  1 NREC =         1 INTLOC = 8227
 II,JST,KST,LST = 18  1  1  1 NREC =         1 INTLOC =12642
 II,JST,KST,LST = 19  1  1  1 NREC =         2 INTLOC =14506
 II,JST,KST,LST = 20  1  1  1 NREC =         5 INTLOC =  249
 TOTAL NUMBER OF NONZERO TWO-ELECTRON INTEGRALS =              167843
         12 INTEGRAL RECORDS WERE STORED ON DISK FILE  8.
  ...... END OF TWO-ELECTRON INTEGRALS .....
 STEP CPU TIME =     0.16 TOTAL CPU TIME =        0.2 (    0.0 MIN)
 TOTAL WALL CLOCK TIME=        0.2 SECONDS, CPU UTILIZATION IS 100.00%

          --------------------------
               R-PBE SCF CALCULATION
          --------------------------

     NUCLEAR ENERGY =       101.6451544381
     MAXIT =   30     NPUNCH=    2
     EXTRAP=T  DAMP=F  SHIFT=F  RSTRCT=F  DIIS=T  DEM=F  SOSCF=F
         DENSITY MATRIX CONVERGENCE THRESHOLD=  1.00E-05
     COARSE -> FINE DFT GRID SWITCH THRESHOLD=  3.00E-04 (SWITCH IN $DFT)
                   HF -> DFT SWITCH THRESHOLD=  5.00E-03 (SWOFF IN $DFT)
     MEMORY REQUIRED FOR RHF ITERS=    183108 WORDS.

 DFT CODE IS SWITCHING FROM THE FINE GRID NRAD= 96,  NLEB=  302
                      TO THE COARSE GRID NRAD0= 24, NLEB0=  110

     EXCHANGE FUNCTIONAL   =PBE       
     CORRELATION FUNCTIONAL=PBE       
     DFT THRESHOLD         =.460E-07
     GRID CHANGE THRESHOLD =.300E-03
 FOR AN EULER-MACLAURIN QUADRATURE USING  96 RADIAL POINTS:
 SMALLEST GAUSSIAN PRIMITIVE EXPONENT=        0.1313100000 OF TYPE -P-
 ON ATOM NUMBER   1 HAS RADIAL NORMALIZATION=  1.000000
  LARGEST GAUSSIAN PRIMITIVE EXPONENT=    55510.0000000000 OF TYPE -S-
 ON ATOM NUMBER   1 HAS RADIAL NORMALIZATION=  0.999999
 DFT IS SWITCHED OFF, PERFORMING PURE SCF UNTIL SWOFF THRESHOLD IS REACHED.

 ITER EX DEM     TOTAL ENERGY        E CHANGE  DENSITY CHANGE    DIIS ERROR
   1  0  0     -545.8979468135  -545.8979468135   0.401307363   1.508493944
          * * *   INITIATING DIIS PROCEDURE   * * *
   2  1  0     -546.6003039412    -0.7023571278   0.465330921   0.313935996
   3  2  0     -546.7118958650    -0.1115919238   0.147939337   0.293870039
   4  3  0     -546.9074106975    -0.1955148325   0.141282405   0.032185177
   5  4  0     -546.9242834233    -0.0168727258   0.145091008   0.030761564
   6  5  0     -546.9378136388    -0.0135302155   0.260039302   0.028347197
   7  6  0     -546.9595294974    -0.0217158586   0.110886806   0.019422842
   8  7  0     -546.9667588440    -0.0072293466   0.155689202   0.015656473
   9  8  0     -546.9731299772    -0.0063711332   0.017657689   0.017347719
  10  9  0     -546.9736524490    -0.0005224718   0.028192561   0.004349083
  11 10  0     -546.9739453392    -0.0002928902   0.010907408   0.003025013
  12 11  0     -546.9739788055    -0.0000334663   0.000874080   0.000369834
 CONVERGED TO SWOFF, SO DFT CALCULATION IS NOW SWITCHED ON.
          * * *   INITIATING DIIS PROCEDURE   * * *
  13 12  0     -548.1730350822    -1.1990562766   0.252075297   0.116017376
  14 13  0     -548.1666009041     0.0064341780   0.198666634   0.101098173
  15 14  0     -548.1751363739    -0.0085354698   0.080992004   0.123441017
  16 15  0     -548.2079702393    -0.0328338653   0.067236997   0.027366210
  17 16  0     -548.2105366482    -0.0025664089   0.025316915   0.006966384
  18 17  0     -548.2107724784    -0.0002358302   0.003662038   0.000783125
  19 18  0     -548.2107756905    -0.0000032121   0.000209147   0.000082031
 DFT CODE IS SWITCHING BACK TO THE FINE GRID
          * * *   INITIATING DIIS PROCEDURE   * * *
  20 19  0     -548.1784974976     0.0322781929   0.019591311   0.015285958
  21 20  0     -548.1787623855    -0.0002648879   0.021522913   0.003984770
  22 21  0     -548.1787122569     0.0000501286   0.010430776   0.004642490
  23 22  0     -548.1788269203    -0.0001146634   0.001963245   0.002267126
  24 23  0     -548.1788363414    -0.0000094211   0.001294711   0.000449886
  25 24  0     -548.1788374289    -0.0000010874   0.000291661   0.000051281
  26 25  0     -548.1788374416    -0.0000000128   0.000023700   0.000008718
  27 26  0     -548.1788374419    -0.0000000003   0.000001947   0.000000680
  28 27  0     -548.1788374419     0.0000000000   0.000000216   0.000000072

          -----------------
          DENSITY CONVERGED
          -----------------
     TIME TO FORM FOCK OPERATORS=       4.8 SECONDS (       0.2 SEC/ITER)
     TIME TO SOLVE SCF EQUATIONS=       0.0 SECONDS (       0.0 SEC/ITER)

 FINAL R-PBE ENERGY IS     -548.1788374419 AFTER  28 ITERATIONS
 DFT EXCHANGE + CORRELATION ENERGY =       -42.4564842183
 TOTAL ELECTRON NUMBER             =        31.9999990652

          ------------
          EIGENVECTORS
          ------------

                      1          2          3          4          5
                  -88.2215   -18.8107   -18.8106    -7.8330    -5.8554
                     A1         B1         A1         A1         B1  
    1  S  1  S    1.002988   0.000000  -0.000028  -0.274098   0.000000
    2  S  1  S   -0.010307   0.000000  -0.000114   1.039332   0.000000
    3  S  1  S    0.001840   0.000000  -0.000291   0.040412   0.000000
    4  S  1  S   -0.000527   0.000000   0.006984  -0.009130   0.000000
    5  S  1  X    0.000000   0.000093   0.000000   0.000000   0.996841
    6  S  1  Y    0.000000   0.000000   0.000000   0.000000   0.000000
    7  S  1  Z    0.000038   0.000000   0.000001   0.007202   0.000000
    8  S  1  X    0.000000  -0.002223   0.000000   0.000000   0.008474
    9  S  1  Y    0.000000   0.000000   0.000000   0.000000   0.000000
   10  S  1  Z    0.000015   0.000000   0.000146   0.000685   0.000000
   11  S  1  X    0.000000  -0.009553   0.000000   0.000000  -0.000873
   12  S  1  Y    0.000000   0.000000   0.000000   0.000000   0.000000
   13  S  1  Z    0.000012   0.000000   0.000597  -0.000138   0.000000
   14  S  1 XX    0.000247   0.000000   0.000466   0.002275   0.000000
   15  S  1 YY   -0.000125   0.000000  -0.000246  -0.001132   0.000000
   16  S  1 ZZ   -0.000122   0.000000  -0.000221  -0.001143   0.000000
   17  S  1 XY    0.000000   0.000000   0.000000   0.000000   0.000000
   18  S  1 XZ    0.000000  -0.000237   0.000000   0.000000   0.000545
   19  S  1 YZ    0.000000   0.000000   0.000000   0.000000   0.000000
   20  O  2  S    0.000017   0.703351   0.703214   0.000012   0.000427
   21  O  2  S    0.000075   0.026914   0.025317   0.000197  -0.000034
   22  O  2  S   -0.000236  -0.016138  -0.010817  -0.001335  -0.001122
   23  O  2  X   -0.000065   0.000757   0.000896  -0.000589  -0.000830
   24  O  2  Y    0.000000   0.000000   0.000000   0.000000   0.000000
   25  O  2  Z    0.000006  -0.000083   0.000033   0.000050   0.000072
   26  O  2  X   -0.000249  -0.003694  -0.002971  -0.001945  -0.000566
   27  O  2  Y    0.000000   0.000000   0.000000   0.000000   0.000000
   28  O  2  Z    0.000025   0.000610  -0.000001   0.000230   0.000172
   29  O  2 XX   -0.000179  -0.000405  -0.000400  -0.000872  -0.000885
   30  O  2 YY    0.000091   0.000209   0.000203   0.000444   0.000455
   31  O  2 ZZ    0.000088   0.000196   0.000198   0.000429   0.000430
   32  O  2 XY    0.000000   0.000000   0.000000   0.000000   0.000000
   33  O  2 XZ    0.000033   0.000097   0.000036   0.000164   0.000221
   34  O  2 YZ    0.000000   0.000000   0.000000   0.000000   0.000000
   35  O  3  S    0.000017  -0.703351   0.703214   0.000012  -0.000427
   36  O  3  S    0.000075  -0.026914   0.025317   0.000197   0.000034
   37  O  3  S   -0.000236   0.016138  -0.010817  -0.001335   0.001122
   38  O  3  X    0.000065   0.000757  -0.000896   0.000589  -0.000830
   39  O  3  Y    0.000000   0.000000   0.000000   0.000000   0.000000
   40  O  3  Z    0.000006   0.000083   0.000033   0.000050  -0.000072
   41  O  3  X    0.000249  -0.003694   0.002971   0.001945  -0.000566
   42  O  3  Y    0.000000   0.000000   0.000000   0.000000   0.000000
   43  O  3  Z    0.000025  -0.000610  -0.000001   0.000230  -0.000172
   44  O  3 XX   -0.000179   0.000405  -0.000400  -0.000872   0.000885
   45  O  3 YY    0.000091  -0.000209   0.000203   0.000444  -0.000455
   46  O  3 ZZ    0.000088  -0.000196   0.000198   0.000429  -0.000430
   47  O  3 XY    0.000000   0.000000   0.000000   0.000000   0.000000
   48  O  3 XZ   -0.000033   0.000097  -0.000036  -0.000164   0.000221
   49  O  3 YZ    0.000000   0.000000   0.000000   0.000000   0.000000

                      6          7          8          9         10
                   -5.8522    -5.8513    -1.0205    -0.9655    -0.5912
                     B2         A1         A1         B1         A1  
    1  S  1  S    0.000000   0.002038   0.050320   0.000000   0.064385
    2  S  1  S    0.000000  -0.007646  -0.148889   0.000000  -0.179018
    3  S  1  S    0.000000   0.000243   0.290226   0.000000   0.411329
    4  S  1  S    0.000000  -0.000658   0.170326   0.000000   0.366980
    5  S  1  X    0.000000   0.000000   0.000000   0.132343   0.000000
    6  S  1  Y    0.997087   0.000000   0.000000   0.000000   0.000000
    7  S  1  Z    0.000000   0.997075  -0.014709   0.000000  -0.007311
    8  S  1  X    0.000000   0.000000   0.000000  -0.249428   0.000000
    9  S  1  Y    0.008331   0.000000   0.000000   0.000000   0.000000
   10  S  1  Z    0.000000   0.008272   0.031193   0.000000   0.021461
   11  S  1  X    0.000000   0.000000   0.000000  -0.000543   0.000000
   12  S  1  Y   -0.000041   0.000000   0.000000   0.000000   0.000000
   13  S  1  Z    0.000000  -0.000050   0.003101   0.000000   0.001661
   14  S  1 XX    0.000000  -0.000511   0.078194   0.000000  -0.025526
   15  S  1 YY    0.000000  -0.000162  -0.039612   0.000000   0.013196
   16  S  1 ZZ    0.000000   0.000673  -0.038581   0.000000   0.012330
   17  S  1 XY    0.000000   0.000000   0.000000   0.000000   0.000000
   18  S  1 XZ    0.000000   0.000000   0.000000  -0.016744   0.000000
   19  S  1 YZ    0.000483   0.000000   0.000000   0.000000   0.000000
   20  O  2  S    0.000000  -0.000046  -0.125522  -0.145648   0.105412
   21  O  2  S    0.000000  -0.000039   0.253337   0.288607  -0.217118
   22  O  2  S    0.000000   0.000382   0.271317   0.361170  -0.359810
   23  O  2  X    0.000000   0.000138   0.104533   0.102567   0.186950
   24  O  2  Y    0.000061   0.000000   0.000000   0.000000   0.000000
   25  O  2  Z    0.000000   0.000048  -0.005374  -0.005791  -0.010781
   26  O  2  X    0.000000   0.000218   0.033679   0.043984   0.089952
   27  O  2  Y    0.000010   0.000000   0.000000   0.000000   0.000000
   28  O  2  Z    0.000000  -0.000014   0.000289  -0.003677  -0.003477
   29  O  2 XX    0.000000   0.000164   0.007716   0.010270   0.012936
   30  O  2 YY    0.000000  -0.000059  -0.003566  -0.004965  -0.006703
   31  O  2 ZZ    0.000000  -0.000105  -0.004150  -0.005304  -0.006232
   32  O  2 XY    0.000175   0.000000   0.000000   0.000000   0.000000
   33  O  2 XZ    0.000000   0.000144   0.001206  -0.000848  -0.002134
   34  O  2 YZ   -0.000028   0.000000   0.000000   0.000000   0.000000
   35  O  3  S    0.000000  -0.000046  -0.125522   0.145648   0.105412
   36  O  3  S    0.000000  -0.000039   0.253337  -0.288607  -0.217118
   37  O  3  S    0.000000   0.000382   0.271317  -0.361170  -0.359810
   38  O  3  X    0.000000  -0.000138  -0.104533   0.102567  -0.186950
   39  O  3  Y    0.000061   0.000000   0.000000   0.000000   0.000000
   40  O  3  Z    0.000000   0.000048  -0.005374   0.005791  -0.010781
   41  O  3  X    0.000000  -0.000218  -0.033679   0.043984  -0.089952
   42  O  3  Y    0.000010   0.000000   0.000000   0.000000   0.000000
   43  O  3  Z    0.000000  -0.000014   0.000289   0.003677  -0.003477
   44  O  3 XX    0.000000   0.000164   0.007716  -0.010270   0.012936
   45  O  3 YY    0.000000  -0.000059  -0.003566   0.004965  -0.006703
   46  O  3 ZZ    0.000000  -0.000105  -0.004150   0.005304  -0.006232
   47  O  3 XY   -0.000175   0.000000   0.000000   0.000000   0.000000
   48  O  3 XZ    0.000000  -0.000144  -0.001206  -0.000848   0.002134
   49  O  3 YZ   -0.000028   0.000000   0.000000   0.000000   0.000000

                     11         12         13         14         15
                   -0.4475    -0.4285    -0.4267    -0.3425    -0.3409
                     B1         B2         A1         A2         B1  
    1  S  1  S    0.000000   0.000000  -0.004701   0.000000   0.000000
    2  S  1  S    0.000000   0.000000   0.014197   0.000000   0.000000
    3  S  1  S    0.000000   0.000000  -0.028617   0.000000   0.000000
    4  S  1  S    0.000000   0.000000  -0.041741   0.000000   0.000000
    5  S  1  X   -0.165782   0.000000   0.000000   0.000000  -0.009377
    6  S  1  Y    0.000000  -0.198821   0.000000   0.000000   0.000000
    7  S  1  Z    0.000000   0.000000  -0.197688   0.000000   0.000000
    8  S  1  X    0.389011   0.000000   0.000000   0.000000   0.020689
    9  S  1  Y    0.000000   0.461576   0.000000   0.000000   0.000000
   10  S  1  Z    0.000000   0.000000   0.458430   0.000000   0.000000
   11  S  1  X   -0.015773   0.000000   0.000000   0.000000   0.015838
   12  S  1  Y    0.000000   0.252059   0.000000   0.000000   0.000000
   13  S  1  Z    0.000000   0.000000   0.250579   0.000000   0.000000
   14  S  1 XX    0.000000   0.000000  -0.017497   0.000000   0.000000
   15  S  1 YY    0.000000   0.000000  -0.006072   0.000000   0.000000
   16  S  1 ZZ    0.000000   0.000000   0.023569   0.000000   0.000000
   17  S  1 XY    0.000000   0.000000   0.000000  -0.130487   0.000000
   18  S  1 XZ    0.015869   0.000000   0.000000   0.000000  -0.129380
   19  S  1 YZ    0.000000   0.017090   0.000000   0.000000   0.000000
   20  O  2  S   -0.064741   0.000000   0.001336   0.000000  -0.000613
   21  O  2  S    0.139871   0.000000  -0.003281   0.000000   0.000791
   22  O  2  S    0.208437   0.000000  -0.004286   0.000000   0.006833
   23  O  2  X   -0.382576   0.000000   0.039058   0.000000   0.045068
   24  O  2  Y    0.000000   0.316694   0.000000   0.460344   0.000000
   25  O  2  Z    0.030168   0.000000   0.314674   0.000000   0.458015
   26  O  2  X   -0.223662   0.000000   0.027422   0.000000   0.031882
   27  O  2  Y    0.000000   0.188960   0.000000   0.323222   0.000000
   28  O  2  Z    0.020519   0.000000   0.187837   0.000000   0.321624
   29  O  2 XX   -0.015905   0.000000   0.004693   0.000000   0.000877
   30  O  2 YY    0.008196   0.000000  -0.001331   0.000000   0.000385
   31  O  2 ZZ    0.007709   0.000000  -0.003362   0.000000  -0.001262
   32  O  2 XY    0.000000   0.021566   0.000000   0.017652   0.000000
   33  O  2 XZ    0.003303   0.000000   0.020976   0.000000   0.017799
   34  O  2 YZ    0.000000  -0.001204   0.000000  -0.000937   0.000000
   35  O  3  S    0.064741   0.000000   0.001336   0.000000   0.000613
   36  O  3  S   -0.139871   0.000000  -0.003281   0.000000  -0.000791
   37  O  3  S   -0.208437   0.000000  -0.004286   0.000000  -0.006833
   38  O  3  X   -0.382576   0.000000  -0.039058   0.000000   0.045068
   39  O  3  Y    0.000000   0.316694   0.000000  -0.460344   0.000000
   40  O  3  Z   -0.030168   0.000000   0.314674   0.000000  -0.458015
   41  O  3  X   -0.223662   0.000000  -0.027422   0.000000   0.031882
   42  O  3  Y    0.000000   0.188960   0.000000  -0.323222   0.000000
   43  O  3  Z   -0.020519   0.000000   0.187837   0.000000  -0.321624
   44  O  3 XX    0.015905   0.000000   0.004693   0.000000  -0.000877
   45  O  3 YY   -0.008196   0.000000  -0.001331   0.000000  -0.000385
   46  O  3 ZZ   -0.007709   0.000000  -0.003362   0.000000   0.001262
   47  O  3 XY    0.000000  -0.021566   0.000000   0.017652   0.000000
   48  O  3 XZ    0.003303   0.000000  -0.020976   0.000000   0.017799
   49  O  3 YZ    0.000000  -0.001204   0.000000   0.000937   0.000000

                     16         17         18         19         20
                   -0.2236    -0.1632    -0.1567     0.1876     0.3659
                     A1         B2         A1         B1         A1  
    1  S  1  S    0.031209   0.000000   0.007502   0.000000  -0.030861
    2  S  1  S   -0.147706   0.000000  -0.036394   0.000000  -0.118323
    3  S  1  S    0.128277   0.000000   0.031204   0.000000  -0.482447
    4  S  1  S    0.803143   0.000000   0.231851   0.000000   0.727327
    5  S  1  X    0.000000   0.000000   0.000000  -0.119662   0.000000
    6  S  1  Y    0.000000  -0.214098   0.000000   0.000000   0.000000
    7  S  1  Z    0.048676   0.000000  -0.208725   0.000000   0.278052
    8  S  1  X    0.000000   0.000000   0.000000   0.306556   0.000000
    9  S  1  Y    0.000000   0.543084   0.000000   0.000000   0.000000
   10  S  1  Z   -0.118191   0.000000   0.531059   0.000000  -1.077627
   11  S  1  X    0.000000   0.000000   0.000000   1.927681   0.000000
   12  S  1  Y    0.000000   0.479957   0.000000   0.000000   0.000000
   13  S  1  Z   -0.064353   0.000000   0.482630   0.000000   1.242255
   14  S  1 XX   -0.226654   0.000000  -0.063948   0.000000   0.068595
   15  S  1 YY    0.115103   0.000000   0.032532   0.000000   0.027742
   16  S  1 ZZ    0.111551   0.000000   0.031417   0.000000  -0.096337
   17  S  1 XY    0.000000   0.000000   0.000000   0.000000   0.000000
   18  S  1 XZ    0.000000   0.000000   0.000000  -0.061487   0.000000
   19  S  1 YZ    0.000000  -0.000025   0.000000   0.000000   0.000000
   20  O  2  S    0.020240   0.000000   0.010507  -0.087156   0.007827
   21  O  2  S   -0.051536   0.000000  -0.023264   0.139702  -0.001992
   22  O  2  S   -0.138268   0.000000  -0.077154   1.071406  -0.186551
   23  O  2  X   -0.404131   0.000000  -0.144608   0.149453   0.061533
   24  O  2  Y    0.000000  -0.393455   0.000000   0.000000   0.000000
   25  O  2  Z    0.136160   0.000000  -0.368793  -0.068810  -0.088650
   26  O  2  X   -0.303121   0.000000  -0.120907   0.464673  -0.107782
   27  O  2  Y    0.000000  -0.329043   0.000000   0.000000   0.000000
   28  O  2  Z    0.104143   0.000000  -0.310136  -0.085290  -0.095541
   29  O  2 XX   -0.001438   0.000000   0.000050   0.016725  -0.027962
   30  O  2 YY    0.000642   0.000000   0.000325  -0.007921   0.014058
   31  O  2 ZZ    0.000797   0.000000  -0.000375  -0.008804   0.013904
   32  O  2 XY    0.000000   0.000329   0.000000   0.000000   0.000000
   33  O  2 XZ    0.000250   0.000000   0.000469   0.002191  -0.021409
   34  O  2 YZ    0.000000  -0.000408   0.000000   0.000000   0.000000
   35  O  3  S    0.020240   0.000000   0.010507   0.087156   0.007827
   36  O  3  S   -0.051536   0.000000  -0.023264  -0.139702  -0.001992
   37  O  3  S   -0.138268   0.000000  -0.077154  -1.071406  -0.186551
   38  O  3  X    0.404131   0.000000   0.144608   0.149453  -0.061533
   39  O  3  Y    0.000000  -0.393455   0.000000   0.000000   0.000000
   40  O  3  Z    0.136160   0.000000  -0.368793   0.068810  -0.088650
   41  O  3  X    0.303121   0.000000   0.120907   0.464673   0.107782
   42  O  3  Y    0.000000  -0.329043   0.000000   0.000000   0.000000
   43  O  3  Z    0.104143   0.000000  -0.310136   0.085290  -0.095541
   44  O  3 XX   -0.001438   0.000000   0.000050  -0.016725  -0.027962
   45  O  3 YY    0.000642   0.000000   0.000325   0.007921   0.014058
   46  O  3 ZZ    0.000797   0.000000  -0.000375   0.008804   0.013904
   47  O  3 XY    0.000000  -0.000329   0.000000   0.000000   0.000000
   48  O  3 XZ   -0.000250   0.000000  -0.000469   0.002191   0.021409
   49  O  3 YZ    0.000000  -0.000408   0.000000   0.000000   0.000000

                     21         22         23         24         25
                    0.3676     0.3994     0.4488     0.5102     0.5103
                     B2         A1         B1         B2         A1  
    1  S  1  S    0.000000  -0.112838   0.000000   0.000000  -0.000817
    2  S  1  S    0.000000  -0.383793   0.000000   0.000000  -0.000570
    3  S  1  S    0.000000  -1.705892   0.000000   0.000000  -0.009664
    4  S  1  S    0.000000   2.218046   0.000000   0.000000  -0.004398
    5  S  1  X    0.000000   0.000000  -0.346146   0.000000   0.000000
    6  S  1  Y    0.290458   0.000000   0.000000   0.025283   0.000000
    7  S  1  Z    0.000000  -0.081482   0.000000   0.000000  -0.025391
    8  S  1  X    0.000000   0.000000   1.258210   0.000000   0.000000
    9  S  1  Y   -1.128058   0.000000   0.000000  -0.095941   0.000000
   10  S  1  Z    0.000000   0.321382   0.000000   0.000000   0.096241
   11  S  1  X    0.000000   0.000000  -1.089695   0.000000   0.000000
   12  S  1  Y    1.277243   0.000000   0.000000   0.085464   0.000000
   13  S  1  Z    0.000000  -0.316099   0.000000   0.000000  -0.086995
   14  S  1 XX    0.000000   0.046936   0.000000   0.000000  -0.003403
   15  S  1 YY    0.000000  -0.044914   0.000000   0.000000   0.859744
   16  S  1 ZZ    0.000000  -0.002022   0.000000   0.000000  -0.856340
   17  S  1 XY    0.000000   0.000000   0.000000   0.000000   0.000000
   18  S  1 XZ    0.000000   0.000000  -0.156614   0.000000   0.000000
   19  S  1 YZ   -0.075079   0.000000   0.000000   0.990844   0.000000
   20  O  2  S    0.000000   0.014305  -0.016245   0.000000  -0.000609
   21  O  2  S    0.000000  -0.014319   0.101099   0.000000   0.001190
   22  O  2  S    0.000000  -0.364800  -0.304936   0.000000   0.006943
   23  O  2  X    0.000000   0.174072   0.361664   0.000000   0.003950
   24  O  2  Y   -0.083415   0.000000   0.000000  -0.047987   0.000000
   25  O  2  Z    0.000000  -0.005209  -0.083926   0.000000   0.047938
   26  O  2  X    0.000000  -0.212836   0.104206   0.000000   0.006005
   27  O  2  Y   -0.109418   0.000000   0.000000   0.008919   0.000000
   28  O  2  Z    0.000000   0.048570  -0.006493   0.000000  -0.009469
   29  O  2 XX    0.000000  -0.060138  -0.053045   0.000000  -0.000196
   30  O  2 YY    0.000000   0.030470   0.028177   0.000000   0.030033
   31  O  2 ZZ    0.000000   0.029668   0.024868   0.000000  -0.029837
   32  O  2 XY   -0.026780   0.000000   0.000000   0.006192   0.000000
   33  O  2 XZ    0.000000   0.017960   0.020426   0.000000  -0.006191
   34  O  2 YZ    0.000112   0.000000   0.000000   0.034565   0.000000
   35  O  3  S    0.000000   0.014305   0.016245   0.000000  -0.000609
   36  O  3  S    0.000000  -0.014319  -0.101099   0.000000   0.001190
   37  O  3  S    0.000000  -0.364800   0.304936   0.000000   0.006943
   38  O  3  X    0.000000  -0.174072   0.361664   0.000000  -0.003950
   39  O  3  Y   -0.083415   0.000000   0.000000  -0.047987   0.000000
   40  O  3  Z    0.000000  -0.005209   0.083926   0.000000   0.047938
   41  O  3  X    0.000000   0.212836   0.104206   0.000000  -0.006005
   42  O  3  Y   -0.109418   0.000000   0.000000   0.008919   0.000000
   43  O  3  Z    0.000000   0.048570   0.006493   0.000000  -0.009469
   44  O  3 XX    0.000000  -0.060138   0.053045   0.000000  -0.000196
   45  O  3 YY    0.000000   0.030470  -0.028177   0.000000   0.030033
   46  O  3 ZZ    0.000000   0.029668  -0.024868   0.000000  -0.029837
   47  O  3 XY    0.026780   0.000000   0.000000  -0.006192   0.000000
   48  O  3 XZ    0.000000  -0.017960   0.020426   0.000000   0.006191
   49  O  3 YZ    0.000112   0.000000   0.000000   0.034565   0.000000

                     26         27         28         29         30
                    0.5543     0.5675     0.6622     0.7446     0.7666
                     A2         B1         A1         B1         A2  
    1  S  1  S    0.000000   0.000000  -0.025974   0.000000   0.000000
    2  S  1  S    0.000000   0.000000  -0.046231   0.000000   0.000000
    3  S  1  S    0.000000   0.000000  -0.361927   0.000000   0.000000
    4  S  1  S    0.000000   0.000000  -1.130644   0.000000   0.000000
    5  S  1  X    0.000000  -0.079823   0.000000  -0.047113   0.000000
    6  S  1  Y    0.000000   0.000000   0.000000   0.000000   0.000000
    7  S  1  Z    0.000000   0.000000   0.020032   0.000000   0.000000
    8  S  1  X    0.000000   0.332121   0.000000   0.458722   0.000000
    9  S  1  Y    0.000000   0.000000   0.000000   0.000000   0.000000
   10  S  1  Z    0.000000   0.000000  -0.102162   0.000000   0.000000
   11  S  1  X    0.000000   0.126269   0.000000  -0.038127   0.000000
   12  S  1  Y    0.000000   0.000000   0.000000   0.000000   0.000000
   13  S  1  Z    0.000000   0.000000  -0.020025   0.000000   0.000000
   14  S  1 XX    0.000000   0.000000  -0.663332   0.000000   0.000000
   15  S  1 YY    0.000000   0.000000   0.332496   0.000000   0.000000
   16  S  1 ZZ    0.000000   0.000000   0.330836   0.000000   0.000000
   17  S  1 XY    0.834020   0.000000   0.000000   0.000000   0.578886
   18  S  1 XZ    0.000000   0.814672   0.000000   0.218920   0.000000
   19  S  1 YZ    0.000000   0.000000   0.000000   0.000000   0.000000
   20  O  2  S    0.000000  -0.023793  -0.061004  -0.019521   0.000000
   21  O  2  S    0.000000   0.079636   0.160938   0.033663   0.000000
   22  O  2  S    0.000000   0.145633   0.480226   0.115411   0.000000
   23  O  2  X    0.000000   0.061306  -0.341560  -0.502885   0.000000
   24  O  2  Y    0.412154   0.000000   0.000000   0.000000  -0.512222
   25  O  2  Z    0.000000   0.397035   0.011623  -0.280862   0.000000
   26  O  2  X    0.000000   0.227599   1.141523   0.855723   0.000000
   27  O  2  Y   -0.142645   0.000000   0.000000   0.000000   0.783746
   28  O  2  Z    0.000000  -0.173096  -0.094132   0.366899   0.000000
   29  O  2 XX    0.000000  -0.018818  -0.000295  -0.040498   0.000000
   30  O  2 YY    0.000000   0.002638   0.000509   0.018530   0.000000
   31  O  2 ZZ    0.000000   0.016179  -0.000214   0.021968   0.000000
   32  O  2 XY   -0.066514   0.000000   0.000000   0.000000  -0.068777
   33  O  2 XZ    0.000000  -0.061983   0.002450  -0.015220   0.000000
   34  O  2 YZ    0.008194   0.000000   0.000000   0.000000   0.007806
   35  O  3  S    0.000000   0.023793  -0.061004   0.019521   0.000000
   36  O  3  S    0.000000  -0.079636   0.160938  -0.033663   0.000000
   37  O  3  S    0.000000  -0.145633   0.480226  -0.115411   0.000000
   38  O  3  X    0.000000   0.061306   0.341560  -0.502885   0.000000
   39  O  3  Y   -0.412154   0.000000   0.000000   0.000000   0.512222
   40  O  3  Z    0.000000  -0.397035   0.011623   0.280862   0.000000
   41  O  3  X    0.000000   0.227599  -1.141523   0.855723   0.000000
   42  O  3  Y    0.142645   0.000000   0.000000   0.000000  -0.783746
   43  O  3  Z    0.000000   0.173096  -0.094132  -0.366899   0.000000
   44  O  3 XX    0.000000   0.018818  -0.000295   0.040498   0.000000
   45  O  3 YY    0.000000  -0.002638   0.000509  -0.018530   0.000000
   46  O  3 ZZ    0.000000  -0.016179  -0.000214  -0.021968   0.000000
   47  O  3 XY   -0.066514   0.000000   0.000000   0.000000  -0.068777
   48  O  3 XZ    0.000000  -0.061983  -0.002450  -0.015220   0.000000
   49  O  3 YZ   -0.008194   0.000000   0.000000   0.000000  -0.007806

                     31         32         33         34         35
                    0.7793     0.8508     0.8516     1.2077     1.4903
                     B1         A1         B2         A1         A1  
    1  S  1  S    0.000000   0.002112   0.000000  -0.019852   0.007583
    2  S  1  S    0.000000   0.012794   0.000000  -0.250306   0.104408
    3  S  1  S    0.000000   0.040442   0.000000  -0.540098   0.189690
    4  S  1  S    0.000000  -0.028468   0.000000   1.142454  -1.637953
    5  S  1  X    0.008445   0.000000   0.000000   0.000000   0.000000
    6  S  1  Y    0.000000   0.000000  -0.022415   0.000000   0.000000
    7  S  1  Z    0.000000  -0.022478   0.000000  -0.017413   0.001457
    8  S  1  X   -0.204553   0.000000   0.000000   0.000000   0.000000
    9  S  1  Y    0.000000   0.000000   0.092919   0.000000   0.000000
   10  S  1  Z    0.000000   0.094397   0.000000   0.054555  -0.028095
   11  S  1  X    0.015347   0.000000   0.000000   0.000000   0.000000
   12  S  1  Y    0.000000   0.000000  -0.709351   0.000000   0.000000
   13  S  1  Z    0.000000  -0.707422   0.000000   0.031403  -0.146065
   14  S  1 XX    0.000000   0.033491   0.000000   1.136774  -0.246442
   15  S  1 YY    0.000000   0.037797   0.000000  -0.574338   0.127515
   16  S  1 ZZ    0.000000  -0.071287   0.000000  -0.562436   0.118928
   17  S  1 XY    0.000000   0.000000   0.000000   0.000000   0.000000
   18  S  1 XZ    0.549573   0.000000   0.000000   0.000000   0.000000
   19  S  1 YZ    0.000000   0.000000  -0.062950   0.000000   0.000000
   20  O  2  S    0.007829  -0.002757   0.000000   0.039780   0.013472
   21  O  2  S   -0.037636   0.042787   0.000000  -0.033031  -1.193750
   22  O  2  S    0.000408  -0.018536   0.000000  -0.581621   1.712929
   23  O  2  X    0.311599  -0.050398   0.000000  -0.572768  -0.087896
   24  O  2  Y    0.000000   0.000000  -0.631917   0.000000   0.000000
   25  O  2  Z   -0.429954  -0.628731   0.000000   0.067458  -0.022880
   26  O  2  X   -0.420310   0.062619   0.000000   0.049144   0.651397
   27  O  2  Y    0.000000   0.000000   0.946176   0.000000   0.000000
   28  O  2  Z    0.685343   0.942036   0.000000   0.010472   0.017847
   29  O  2 XX    0.011169  -0.001066   0.000000   0.027642  -0.146080
   30  O  2 YY   -0.012459   0.001150   0.000000  -0.018076   0.073452
   31  O  2 ZZ    0.001290  -0.000084   0.000000  -0.009566   0.072629
   32  O  2 XY    0.000000   0.000000  -0.031346   0.000000   0.000000
   33  O  2 XZ   -0.070603  -0.031517   0.000000  -0.042376   0.002853
   34  O  2 YZ    0.000000   0.000000  -0.000744   0.000000   0.000000
   35  O  3  S   -0.007829  -0.002757   0.000000   0.039780   0.013472
   36  O  3  S    0.037636   0.042787   0.000000  -0.033031  -1.193750
   37  O  3  S   -0.000408  -0.018536   0.000000  -0.581621   1.712929
   38  O  3  X    0.311599   0.050398   0.000000   0.572768   0.087896
   39  O  3  Y    0.000000   0.000000  -0.631917   0.000000   0.000000
   40  O  3  Z    0.429954  -0.628731   0.000000   0.067458  -0.022880
   41  O  3  X   -0.420310  -0.062619   0.000000  -0.049144  -0.651397
   42  O  3  Y    0.000000   0.000000   0.946176   0.000000   0.000000
   43  O  3  Z   -0.685343   0.942036   0.000000   0.010472   0.017847
   44  O  3 XX   -0.011169  -0.001066   0.000000   0.027642  -0.146080
   45  O  3 YY    0.012459   0.001150   0.000000  -0.018076   0.073452
   46  O  3 ZZ   -0.001290  -0.000084   0.000000  -0.009566   0.072629
   47  O  3 XY    0.000000   0.000000   0.031346   0.000000   0.000000
   48  O  3 XZ   -0.070603   0.031517   0.000000   0.042376  -0.002853
   49  O  3 YZ    0.000000   0.000000  -0.000744   0.000000   0.000000

                     36         37         38         39         40
                    1.8644     2.0517     2.0517     2.0734     2.0737
                     B1         B1         A2         B2         A1  
    1  S  1  S    0.000000   0.000000   0.000000   0.000000   0.000600
    2  S  1  S    0.000000   0.000000   0.000000   0.000000   0.002643
    3  S  1  S    0.000000   0.000000   0.000000   0.000000   0.010579
    4  S  1  S    0.000000   0.000000   0.000000   0.000000  -0.001590
    5  S  1  X   -0.018369   0.000136   0.000000   0.000000   0.000000
    6  S  1  Y    0.000000   0.000000   0.000000  -0.011802   0.000000
    7  S  1  Z    0.000000   0.000000   0.000000   0.000000  -0.008070
    8  S  1  X    0.240528  -0.000667   0.000000   0.000000   0.000000
    9  S  1  Y    0.000000   0.000000   0.000000   0.039071   0.000000
   10  S  1  Z    0.000000   0.000000   0.000000   0.000000   0.027334
   11  S  1  X    1.791417   0.004412   0.000000   0.000000   0.000000
   12  S  1  Y    0.000000   0.000000   0.000000   0.014877   0.000000
   13  S  1  Z    0.000000   0.000000   0.000000   0.000000   0.008205
   14  S  1 XX    0.000000   0.000000   0.000000   0.000000  -0.010871
   15  S  1 YY    0.000000   0.000000   0.000000   0.000000   0.103384
   16  S  1 ZZ    0.000000   0.000000   0.000000   0.000000  -0.092513
   17  S  1 XY    0.000000   0.000000   0.009931   0.000000   0.000000
   18  S  1 XZ    0.066340  -0.009895   0.000000   0.000000   0.000000
   19  S  1 YZ    0.000000   0.000000   0.000000  -0.109148   0.000000
   20  O  2  S   -0.007673   0.000065   0.000000   0.000000  -0.000389
   21  O  2  S   -1.289836  -0.002770   0.000000   0.000000   0.008802
   22  O  2  S    2.334672   0.004328   0.000000   0.000000  -0.007021
   23  O  2  X   -0.021625  -0.000200   0.000000   0.000000   0.006521
   24  O  2  Y    0.000000   0.000000  -0.001666   0.010466   0.000000
   25  O  2  Z    0.031708   0.001787   0.000000   0.000000   0.005879
   26  O  2  X    0.540315   0.000243   0.000000   0.000000  -0.007462
   27  O  2  Y    0.000000   0.000000   0.003125  -0.017815   0.000000
   28  O  2  Z   -0.116513  -0.003349   0.000000   0.000000  -0.009905
   29  O  2 XX   -0.248273  -0.010729   0.000000   0.000000  -0.017742
   30  O  2 YY    0.125193   0.612747   0.000000   0.000000  -0.603582
   31  O  2 ZZ    0.123081  -0.602018   0.000000   0.000000   0.621324
   32  O  2 XY    0.000000   0.000000   0.090288  -0.075621   0.000000
   33  O  2 XZ    0.048073  -0.089604   0.000000   0.000000  -0.027790
   34  O  2 YZ    0.000000   0.000000   0.701340   0.704079   0.000000
   35  O  3  S    0.007673  -0.000065   0.000000   0.000000  -0.000389
   36  O  3  S    1.289836   0.002770   0.000000   0.000000   0.008802
   37  O  3  S   -2.334672  -0.004328   0.000000   0.000000  -0.007021
   38  O  3  X   -0.021625  -0.000200   0.000000   0.000000  -0.006521
   39  O  3  Y    0.000000   0.000000   0.001666   0.010466   0.000000
   40  O  3  Z   -0.031708  -0.001787   0.000000   0.000000   0.005879
   41  O  3  X    0.540315   0.000243   0.000000   0.000000   0.007462
   42  O  3  Y    0.000000   0.000000  -0.003125  -0.017815   0.000000
   43  O  3  Z    0.116513   0.003349   0.000000   0.000000  -0.009905
   44  O  3 XX    0.248273   0.010729   0.000000   0.000000  -0.017742
   45  O  3 YY   -0.125193  -0.612747   0.000000   0.000000  -0.603582
   46  O  3 ZZ   -0.123081   0.602018   0.000000   0.000000   0.621324
   47  O  3 XY    0.000000   0.000000   0.090288   0.075621   0.000000
   48  O  3 XZ    0.048073  -0.089604   0.000000   0.000000   0.027790
   49  O  3 YZ    0.000000   0.000000  -0.701340   0.704079   0.000000

                     41         42         43         44         45
                    2.0964     2.1064     2.3707     2.3784     2.7276
                     B2         A1         B1         A2         B1  
    1  S  1  S    0.000000  -0.003701   0.000000   0.000000   0.000000
    2  S  1  S    0.000000  -0.013002   0.000000   0.000000   0.000000
    3  S  1  S    0.000000  -0.061785   0.000000   0.000000   0.000000
    4  S  1  S    0.000000  -0.034313   0.000000   0.000000   0.000000
    5  S  1  X    0.000000   0.000000   0.021046   0.000000  -0.218867
    6  S  1  Y    0.058852   0.000000   0.000000   0.000000   0.000000
    7  S  1  Z    0.000000   0.059678   0.000000   0.000000   0.000000
    8  S  1  X    0.000000   0.000000  -0.119196   0.000000   1.210963
    9  S  1  Y   -0.192179   0.000000   0.000000   0.000000   0.000000
   10  S  1  Z    0.000000  -0.198310   0.000000   0.000000   0.000000
   11  S  1  X    0.000000   0.000000  -0.044046   0.000000   0.554655
   12  S  1  Y   -0.109593   0.000000   0.000000   0.000000   0.000000
   13  S  1  Z    0.000000  -0.115146   0.000000   0.000000   0.000000
   14  S  1 XX    0.000000   0.066665   0.000000   0.000000   0.000000
   15  S  1 YY    0.000000   0.017556   0.000000   0.000000   0.000000
   16  S  1 ZZ    0.000000  -0.084221   0.000000   0.000000   0.000000
   17  S  1 XY    0.000000   0.000000   0.000000   0.549158   0.000000
   18  S  1 XZ    0.000000   0.000000   0.533190   0.000000   0.175749
   19  S  1 YZ   -0.065776   0.000000   0.000000   0.000000   0.000000
   20  O  2  S    0.000000   0.001710   0.000262   0.000000  -0.026776
   21  O  2  S    0.000000  -0.075231   0.085200   0.000000  -0.661533
   22  O  2  S    0.000000   0.083565  -0.120279   0.000000   1.321018
   23  O  2  X    0.000000  -0.043485   0.027752   0.000000  -0.027350
   24  O  2  Y   -0.063280   0.000000   0.000000  -0.031560   0.000000
   25  O  2  Z    0.000000  -0.060429  -0.035006   0.000000   0.009406
   26  O  2  X    0.000000   0.069095  -0.055288   0.000000   0.702460
   27  O  2  Y    0.124283   0.000000   0.000000   0.174357   0.000000
   28  O  2  Z    0.000000   0.124446   0.177468   0.000000  -0.051842
   29  O  2 XX    0.000000   0.161667   0.048501   0.000000   0.771127
   30  O  2 YY    0.000000  -0.106950   0.056642   0.000000  -0.380198
   31  O  2 ZZ    0.000000  -0.054716  -0.105143   0.000000  -0.390929
   32  O  2 XY    0.714827   0.000000   0.000000   0.744757   0.000000
   33  O  2 XZ    0.000000   0.698925   0.740219   0.000000  -0.033667
   34  O  2 YZ    0.073819   0.000000   0.000000  -0.093832   0.000000
   35  O  3  S    0.000000   0.001710  -0.000262   0.000000   0.026776
   36  O  3  S    0.000000  -0.075231  -0.085200   0.000000   0.661533
   37  O  3  S    0.000000   0.083565   0.120279   0.000000  -1.321018
   38  O  3  X    0.000000   0.043485   0.027752   0.000000  -0.027350
   39  O  3  Y   -0.063280   0.000000   0.000000   0.031560   0.000000
   40  O  3  Z    0.000000  -0.060429   0.035006   0.000000  -0.009406
   41  O  3  X    0.000000  -0.069095  -0.055288   0.000000   0.702460
   42  O  3  Y    0.124283   0.000000   0.000000  -0.174357   0.000000
   43  O  3  Z    0.000000   0.124446  -0.177468   0.000000   0.051842
   44  O  3 XX    0.000000   0.161667  -0.048501   0.000000  -0.771127
   45  O  3 YY    0.000000  -0.106950  -0.056642   0.000000   0.380198
   46  O  3 ZZ    0.000000  -0.054716   0.105143   0.000000   0.390929
   47  O  3 XY   -0.714827   0.000000   0.000000   0.744757   0.000000
   48  O  3 XZ    0.000000  -0.698925   0.740219   0.000000  -0.033667
   49  O  3 YZ    0.073819   0.000000   0.000000   0.093832   0.000000

                     46
                    2.8706
                     A1  
    1  S  1  S    0.044724
    2  S  1  S   -0.028763
    3  S  1  S    0.517151
    4  S  1  S    1.371720
    5  S  1  X    0.000000
    6  S  1  Y    0.000000
    7  S  1  Z   -0.019310
    8  S  1  X    0.000000
    9  S  1  Y    0.000000
   10  S  1  Z    0.111484
   11  S  1  X    0.000000
   12  S  1  Y    0.000000
   13  S  1  Z    0.040631
   14  S  1 XX    1.050054
   15  S  1 YY   -0.527726
   16  S  1 ZZ   -0.522329
   17  S  1 XY    0.000000
   18  S  1 XZ    0.000000
   19  S  1 YZ    0.000000
   20  O  2  S    0.040310
   21  O  2  S    0.529181
   22  O  2  S   -1.342207
   23  O  2  X   -0.116135
   24  O  2  Y    0.000000
   25  O  2  Z    0.015441
   26  O  2  X   -0.801052
   27  O  2  Y    0.000000
   28  O  2  Z    0.079707
   29  O  2 XX   -0.853647
   30  O  2 YY    0.438191
   31  O  2 ZZ    0.415456
   32  O  2 XY    0.000000
   33  O  2 XZ    0.197970
   34  O  2 YZ    0.000000
   35  O  3  S    0.040310
   36  O  3  S    0.529181
   37  O  3  S   -1.342207
   38  O  3  X    0.116135
   39  O  3  Y    0.000000
   40  O  3  Z    0.015441
   41  O  3  X    0.801052
   42  O  3  Y    0.000000
   43  O  3  Z    0.079707
   44  O  3 XX   -0.853647
   45  O  3 YY    0.438191
   46  O  3 ZZ    0.415456
   47  O  3 XY    0.000000
   48  O  3 XZ   -0.197970
   49  O  3 YZ    0.000000
 ...... END OF RHF CALCULATION ......
 STEP CPU TIME =     4.80 TOTAL CPU TIME =        5.0 (    0.1 MIN)
 TOTAL WALL CLOCK TIME=        5.0 SECONDS, CPU UTILIZATION IS  99.80%

     ---------------------------------------------------------------------
     PROPERTIES FOR THE PBE      DFT FUNCTIONAL (RHF  TYPE) DENSITY MATRIX
     ---------------------------------------------------------------------

          -----------------
          ENERGY COMPONENTS
          -----------------

         WAVEFUNCTION NORMALIZATION =       1.0000000000

                ONE ELECTRON ENERGY =    -957.4538875971
                TWO ELECTRON ENERGY =     307.6298957171
           NUCLEAR REPULSION ENERGY =     101.6451544381
                                      ------------------
                       TOTAL ENERGY =    -548.1788374419

 ELECTRON-ELECTRON POTENTIAL ENERGY =     307.6298957171
  NUCLEUS-ELECTRON POTENTIAL ENERGY =   -1504.9598291518
   NUCLEUS-NUCLEUS POTENTIAL ENERGY =     101.6451544381
                                      ------------------
             TOTAL POTENTIAL ENERGY =   -1095.6847789966
               TOTAL KINETIC ENERGY =     547.5059415547
                 VIRIAL RATIO (V/T) =       2.0012290202

          ---------------------------------------
          MULLIKEN AND LOWDIN POPULATION ANALYSES
          ---------------------------------------

     ATOMIC MULLIKEN POPULATION IN EACH MOLECULAR ORBITAL

                      1          2          3          4          5

                  2.000000   2.000000   2.000000   2.000000   2.000000

    1             2.000030   0.002242   0.000753   2.001850   1.999446
    2            -0.000015   0.998879   0.999624  -0.000925   0.000277
    3            -0.000015   0.998879   0.999624  -0.000925   0.000277

                      6          7          8          9         10

                  2.000000   2.000000   2.000000   2.000000   2.000000

    1             1.999992   1.999982   0.693229   0.307176   0.838447
    2             0.000004   0.000009   0.653385   0.846412   0.580777
    3             0.000004   0.000009   0.653385   0.846412   0.580777

                     11         12         13         14         15

                  2.000000   2.000000   2.000000   2.000000   2.000000

    1             0.371251   0.996575   0.994113   0.108936   0.110188
    2             0.814375   0.501713   0.502944   0.945532   0.944906
    3             0.814375   0.501713   0.502944   0.945532   0.944906

                     16

                  2.000000

    1             0.926056
    2             0.536972
    3             0.536972

               ----- POPULATIONS IN EACH AO -----
                             MULLIKEN      LOWDIN
              1  S  1  S      2.00023     1.99594
              2  S  1  S      2.01072     1.96963
              3  S  1  S      0.97463     0.61090
              4  S  1  S      1.09174     0.62626
              5  S  1  X      1.99707     1.95438
              6  S  1  Y      1.99636     1.95369
              7  S  1  Z      1.99648     1.95490
              8  S  1  X      0.67850     0.60734
              9  S  1  Y      0.62093     0.58793
             10  S  1  Z      0.65081     0.61895
             11  S  1  X      0.00423     0.24490
             12  S  1  Y      0.37814     0.43500
             13  S  1  Z      0.38395     0.44395
             14  S  1 XX      0.08679     0.38274
             15  S  1 YY      0.25911     0.34893
             16  S  1 ZZ      0.10894     0.34620
             17  S  1 XY      0.11051     0.13251
             18  S  1 XZ      0.00114     0.13438
             19  S  1 YZ      0.00000     0.00107
             20  O  2  S      1.99813     1.98078
             21  O  2  S      0.84754     0.66452
             22  O  2  S      1.03584     0.55636
             23  O  2  X      1.03667     1.00485
             24  O  2  Y      0.86444     0.82464
             25  O  2  Z      0.90543     0.86685
             26  O  2  X      0.44807     0.55582
             27  O  2  Y      0.57711     0.61326
             28  O  2  Z      0.59280     0.62813
             29  O  2 XX      0.00191     0.20923
             30  O  2 YY      0.00559     0.20373
             31  O  2 ZZ      0.00568     0.20284
             32  O  2 XY      0.00564     0.00698
             33  O  2 XZ      0.00002     0.00719
             34  O  2 YZ      0.00000     0.00003
             35  O  3  S      1.99813     1.98078
             36  O  3  S      0.84754     0.66452
             37  O  3  S      1.03584     0.55636
             38  O  3  X      1.03667     1.00485
             39  O  3  Y      0.86444     0.82464
             40  O  3  Z      0.90543     0.86685
             41  O  3  X      0.44807     0.55582
             42  O  3  Y      0.57711     0.61326
             43  O  3  Z      0.59280     0.62813
             44  O  3 XX      0.00191     0.20923
             45  O  3 YY      0.00559     0.20373
             46  O  3 ZZ      0.00568     0.20284
             47  O  3 XY      0.00564     0.00698
             48  O  3 XZ      0.00002     0.00719
             49  O  3 YZ      0.00000     0.00003

          ----- MULLIKEN ATOMIC OVERLAP POPULATIONS -----
          (OFF-DIAGONAL ELEMENTS NEED TO BE MULTIPLIED BY 2)

             1           2           3

    1   15.1372535
    2    0.1065055   8.1994260
    3    0.1065055   0.0189364   8.1994260

          TOTAL MULLIKEN AND LOWDIN ATOMIC POPULATIONS
       ATOM         MULL.POP.    CHARGE          LOW.POP.     CHARGE
    1 S            15.350264    0.649736        15.349586    0.650414
    2 O             8.324868   -0.324868         8.325207   -0.325207
    3 O             8.324868   -0.324868         8.325207   -0.325207

          MULLIKEN SPHERICAL HARMONIC POPULATIONS
       ATOM           S       P       D      F      G      H      I    TOTAL
    1 S             6.08    8.71    0.57   0.00   0.00   0.00   0.00   15.35
    2 O             3.88    4.42    0.02   0.00   0.00   0.00   0.00    8.32
    3 O             3.88    4.42    0.02   0.00   0.00   0.00   0.00    8.32

          -------------------------------
          BOND ORDER AND VALENCE ANALYSIS     BOND ORDER THRESHOLD=0.050
          -------------------------------

                   BOND                       BOND                       BOND
  ATOM PAIR DIST  ORDER      ATOM PAIR DIST  ORDER      ATOM PAIR DIST  ORDER
    1   2  1.500  1.827        1   3  1.500  1.827        2   3  2.989  0.388

                       TOTAL       BONDED        FREE
      ATOM            VALENCE     VALENCE     VALENCE
    1 S                 3.655       3.655       0.000
    2 O                 2.215       2.215       0.000
    3 O                 2.215       2.215       0.000

          ---------------------
          ELECTROSTATIC MOMENTS
          ---------------------

 POINT   1           X           Y           Z (BOHR)    CHARGE
                 0.000000    0.000000    0.000000        0.00 (A.U.)
         DX          DY          DZ         /D/  (DEBYE)
     0.000000    0.000000    0.038503    0.038503
 ...... END OF PROPERTY EVALUATION ......
 STEP CPU TIME =     0.01 TOTAL CPU TIME =        5.0 (    0.1 MIN)
 TOTAL WALL CLOCK TIME=        5.0 SECONDS, CPU UTILIZATION IS 100.00%
               580000  WORDS OF DYNAMIC MEMORY USED
 EXECUTION OF GAMESS TERMINATED NORMALLY Thu Feb 26 00:17:35 2015
 DDI: 263624 bytes (0.3 MB / 0 MWords) used by master data server.

 ----------------------------------------
 CPU timing information for all processes
 ========================================
 0: 4.964 + 0.35 = 5.00
 ----------------------------------------
 ddikick.x: exited gracefully.
----- accounting info -----
Files used on the master node dftfe.crc.nd.edu were:
-rw-r--r-- 1 pmehta1 campus   37475 Feb 26 00:17 /tmp/gamess.dat
-rw-r--r-- 1 pmehta1 campus     142 Feb 26 00:17 /tmp/gamess.F05
-rw-r--r-- 1 pmehta1 campus 2160288 Feb 26 00:17 /tmp/gamess.F08
-rw-r--r-- 1 pmehta1 campus 1220440 Feb 26 00:17 /tmp/gamess.F10
Thu Feb 26 00:17:38 EST 2015
0.253u 0.168s 0:08.46 4.8%	0+0k 0+112io 0pf+0w
