----- GAMESS execution script 'rungms' -----
This job is running on host dftfe.crc.nd.edu
under operating system Linux at Thu Feb 26 00:20:48 EST 2015
Available scratch disk space (Kbyte units) at beginning of the job is
Filesystem     1K-blocks     Used Available Use% Mounted on
/dev/sda2      147771864 22816836 117448596  17% /
GAMESS temporary binary files will be written to /tmp
GAMESS supplementary output files will be written to /tmp
Copying input file gamess.inp to your run's scratch directory...

 Distributed Data Interface kickoff program.
 Initiating 1 compute processes on 1 nodes to run the following command:
 /opt/crc/gamess/2012R1/gamess/gamess.00.x gamess 

          ******************************************************
          *         GAMESS VERSION =  1 MAY 2012 (R1)          *
          *             FROM IOWA STATE UNIVERSITY             *
          * M.W.SCHMIDT, K.K.BALDRIDGE, J.A.BOATZ, S.T.ELBERT, *
          *   M.S.GORDON, J.H.JENSEN, S.KOSEKI, N.MATSUNAGA,   *
          *          K.A.NGUYEN, S.J.SU, T.L.WINDUS,           *
          *       TOGETHER WITH M.DUPUIS, J.A.MONTGOMERY       *
          *         J.COMPUT.CHEM.  14, 1347-1363(1993)        *
          **************** 64 BIT LINUX VERSION ****************

  SINCE 1993, STUDENTS AND POSTDOCS WORKING AT IOWA STATE UNIVERSITY
  AND ALSO IN THEIR VARIOUS JOBS AFTER LEAVING ISU HAVE MADE IMPORTANT
  CONTRIBUTIONS TO THE CODE:
     IVANA ADAMOVIC, CHRISTINE AIKENS, YURI ALEXEEV, POOJA ARORA,
     ANDREY ASADCHEV, ROB BELL, PRADIPTA BANDYOPADHYAY, JONATHAN BENTZ,
     BRETT BODE, GALINA CHABAN, WEI CHEN, CHEOL HO CHOI, PAUL DAY,
     ALBERT DEFUSCO, TIM DUDLEY, DMITRI FEDOROV, GRAHAM FLETCHER,
     MARK FREITAG, KURT GLAESEMANN, DAN KEMP, GRANT MERRILL,
     NORIYUKI MINEZAWA, JONATHAN MULLIN, TAKESHI NAGATA,
     SEAN NEDD, HEATHER NETZLOFF, BOSILJKA NJEGIC, RYAN OLSON, MIKE PAK,
     JIM SHOEMAKER, LYUDMILA SLIPCHENKO, SAROM SOK, JIE SONG,
     TETSUYA TAKETSUGU, SIMON WEBB, SOOHAENG YOO, FEDERICO ZAHARIEV

  ADDITIONAL CODE HAS BEEN PROVIDED BY COLLABORATORS IN OTHER GROUPS:
     IOWA STATE UNIVERSITY:
          JOE IVANIC, LAIMUTIS BYTAUTAS, KLAUS RUEDENBERG
     UNIVERSITY OF TOKYO: KIMIHIKO HIRAO, TAKAHITO NAKAJIMA,
          TAKAO TSUNEDA, MUNEAKI KAMIYA, SUSUMU YANAGISAWA,
          KIYOSHI YAGI, MAHITO CHIBA, SEIKEN TOKURA, NAOAKI KAWAKAMI
     UNIVERSITY OF AARHUS: FRANK JENSEN
     UNIVERSITY OF IOWA: VISVALDAS KAIRYS, HUI LI
     NATIONAL INST. OF STANDARDS AND TECHNOLOGY: WALT STEVENS, DAVID GARMER
     UNIVERSITY OF PISA: BENEDETTA MENNUCCI, JACOPO TOMASI
     UNIVERSITY OF MEMPHIS: HENRY KURTZ, PRAKASHAN KORAMBATH
     UNIVERSITY OF ALBERTA: TOBY ZENG, MARIUSZ KLOBUKOWSKI
     UNIVERSITY OF NEW ENGLAND: MARK SPACKMAN
     MIE UNIVERSITY: HIROAKI UMEDA
     MICHIGAN STATE UNIVERSITY:
          KAROL KOWALSKI, MARTA WLOCH, JEFFREY GOUR, JESSE LUTZ, PIOTR PIECUCH
     UNIVERSITY OF SILESIA: MONIKA MUSIAL, STANISLAW KUCHARSKI
     FACULTES UNIVERSITAIRES NOTRE-DAME DE LA PAIX:
          OLIVIER QUINET, BENOIT CHAMPAGNE
     UNIVERSITY OF CALIFORNIA - SANTA BARBARA: BERNARD KIRTMAN
     INSTITUTE FOR MOLECULAR SCIENCE:
          KAZUYA ISHIMURA, MICHIO KATOUDA, AND SHIGERU NAGASE
     UNIVERSITY OF NOTRE DAME: DAN CHIPMAN
     KYUSHU UNIVERSITY:
          HARUYUKI NAKANO,
          FENG LONG GU, JACEK KORCHOWIEC, MARCIN MAKOWSKI, AND YURIKO AOKI,
          HIROTOSHI MORI AND EISAKU MIYOSHI
     PENNSYLVANIA STATE UNIVERSITY:
          TZVETELIN IORDANOV, CHET SWALINA, JONATHAN SKONE,
          SHARON HAMMES-SCHIFFER
     WASEDA UNIVERSITY:
          MASATO KOBAYASHI, TOMOKO AKAMA, TSUGUKI TOUMA,
          TAKESHI YOSHIKAWA, YASUHIRO IKABATA, HIROMI NAKAI
     UNIVERSITY OF NEBRASKA:
          PEIFENG SU, DEJUN SI, NANDUN THELLAMUREGE, YALI WANG, HUI LI
     UNIVERSITY OF ZURICH:
          ROBERTO PEVERATI, KIM BALDRIDGE
     N. COPERNICUS UNIVERSITY AND JACKSON STATE UNIVERSITY:
          MARIA BARYSZ

 EXECUTION OF GAMESS BEGUN Thu Feb 26 00:20:48 2015

            ECHO OF THE FIRST FEW INPUT CARDS -
 INPUT CARD> $BASIS GBASIS=PC1 $END                                                         
 INPUT CARD> $CONTRL COORD=ZMT ISPHER=1 RUNTYP=ENERGY DFTTYP=PBE $END                       
 INPUT CARD>                                                                                
 INPUT CARD> $DATA                                                                          
 INPUT CARD>Title                                                                           
 INPUT CARD>Cnv 2                                                                           
 INPUT CARD>                                                                                
 INPUT CARD>S                                                                               
 INPUT CARD>O 1 1.80                                                                        
 INPUT CARD>O 1 1.80 2 140.0                                                                
 INPUT CARD> $END                                                                           
    1000000 WORDS OF MEMORY AVAILABLE

     BASIS OPTIONS
     -------------
     GBASIS=PC1          IGAUSS=       0      POLAR=NONE    
     NDFUNC=       0     NFFUNC=       0     DIFFSP=       F
     NPFUNC=       0      DIFFS=       F     BASNAM=        


     RUN TITLE
     ---------
 Title                                                                           

 THE POINT GROUP OF THE MOLECULE IS CNV     
 THE ORDER OF THE PRINCIPAL AXIS IS     2

 YOUR FULLY SUBSTITUTED Z-MATRIX IS
 S   
 O      1   1.8000000
 O      1   1.8000000  2  140.0000

 THE MOMENTS OF INERTIA ARE (AMU-ANGSTROM**2)
 IXX=     6.061   IYY=    91.523   IZZ=    97.583

 ATOM      ATOMIC                      COORDINATES (BOHR)
           CHARGE         X                   Y                   Z
 S          16.0     0.0000000000        0.0000000000       -0.5818533426
 O           8.0    -3.1963708187        0.0000000000        0.5815304931
 O           8.0     3.1963708187        0.0000000000        0.5815304931

          INTERNUCLEAR DISTANCES (ANGS.)
          ------------------------------

                1 S          2 O          3 O     

   1 S       0.0000000    1.8000000 *  1.8000000 *
   2 O       1.8000000 *  0.0000000    3.3828934  
   3 O       1.8000000 *  3.3828934    0.0000000  

  * ... LESS THAN  3.000


     ATOMIC BASIS SET
     ----------------
 THE CONTRACTED PRIMITIVE FUNCTIONS HAVE BEEN UNNORMALIZED
 THE CONTRACTED BASIS FUNCTIONS ARE NOW NORMALIZED TO UNITY

  SHELL TYPE  PRIMITIVE        EXPONENT          CONTRACTION COEFFICIENT(S)

 S         

      1   S       1         55510.0000000    0.000587229760
      1   S       2          8326.7000000    0.004532413947
      1   S       3          1895.6000000    0.023265261648
      1   S       4           536.7700000    0.089696133027
      1   S       5           174.6700000    0.254098332277
      1   S       6            62.5780000    0.438665087637
      1   S       7            23.5730000    0.314547135094
      1   S       8             5.8908000    0.032727897102

      2   S       9          8326.7000000   -0.000019755715
      2   S      10          1895.6000000   -0.000043822381
      2   S      11           536.7700000   -0.001730264906
      2   S      12           174.6700000   -0.009381263460
      2   S      13            62.5780000   -0.064050766303
      2   S      14            23.5730000   -0.082478179196
      2   S      15             5.8908000    0.478342956889
      2   S      16             2.1852000    0.626896670208

      3   S      17          1895.6000000    0.000016227260
      3   S      18           536.7700000    0.000191135619
      3   S      19           174.6700000    0.001952069674
      3   S      20            62.5780000    0.010578701087
      3   S      21            23.5730000    0.022164934551
      3   S      22             5.8908000   -0.184968323118
      3   S      23             2.1852000   -0.480920750976
      3   S      24             0.4528200    1.243822243872

      4   S      25             0.1620200    1.000000000000

      5   P      26           395.4500000    0.004642761329
      5   P      27            92.8340000    0.036023396489
      5   P      28            29.2660000    0.149058869978
      5   P      29            10.5950000    0.360033266263
      5   P      30             4.0272000    0.455756476221
      5   P      31             1.5484000    0.206167664178

      6   P      32            92.8340000    0.000169901442
      6   P      33            29.2660000   -0.002541839934
      6   P      34            10.5950000   -0.007867614595
      6   P      35             4.0272000   -0.037231009184
      6   P      36             1.5484000    0.161417246830
      6   P      37             0.4613400    0.902230419976

      7   P      38             0.1313100    1.000000000000

      8   D      39             0.5500000    1.000000000000

 O         

     15   S      40          2306.7000000    0.005424388755
     15   S      41           347.1500000    0.040474749465
     15   S      42            78.8900000    0.180219634554
     15   S      43            21.8760000    0.462370311787
     15   S      44             6.6646000    0.454888396263

     16   S      45           347.1500000   -0.000655003786
     16   S      46            78.8900000   -0.005362052952
     16   S      47            21.8760000   -0.074902158894
     16   S      48             6.6646000   -0.181442579655
     16   S      49             1.0669000    1.102006874042

     17   S      50             0.3070000    1.000000000000

     18   P      51            17.0220000    0.068979967443
     18   P      52             3.6838000    0.351985516325
     18   P      53             0.9923400    0.724036547822

     19   P      54             0.2448700    1.000000000000

     20   D      55             1.0000000    1.000000000000

 TOTAL NUMBER OF BASIS SET SHELLS             =   20
 NUMBER OF CARTESIAN GAUSSIAN BASIS FUNCTIONS =   49
 NOTE: THIS RUN WILL RESTRICT THE MO VARIATION SPACE TO SPHERICAL HARMONICS.
 THE NUMBER OF ORBITALS KEPT IN THE VARIATIONAL SPACE WILL BE PRINTED LATER.
 NUMBER OF ELECTRONS                          =   32
 CHARGE OF MOLECULE                           =    0
 SPIN MULTIPLICITY                            =    1
 NUMBER OF OCCUPIED ORBITALS (ALPHA)          =   16
 NUMBER OF OCCUPIED ORBITALS (BETA )          =   16
 TOTAL NUMBER OF ATOMS                        =    3
 THE NUCLEAR REPULSION ENERGY IS       85.2721184046

     LEBEDEV GRID-BASED DFT OPTIONS
     ------------------------------
     DFTTYP=PBE     
     NRAD  =      96     NLEB  =     302
     NRAD0 =      24     NLEB0 =     110
     SWOFF =    5.00E-03 (PURE SCF -> DFT)
     SWITCH=    3.00E-04 (COARSE -> TIGHT GRID)
     THRESH=    0.00E+00 GTHRE=    1.00E+00

 GRIMME'S EMPIRICAL DISPERSION CORRECTION= F

     $CONTRL OPTIONS
     ---------------
 SCFTYP=RHF          RUNTYP=ENERGY       EXETYP=RUN     
 MPLEVL=       0     CITYP =NONE         CCTYP =NONE         VBTYP =NONE    
 DFTTYP=PBE          TDDFT =NONE    
 MULT  =       1     ICHARG=       0     NZVAR =       0     COORD =ZMT     
 PP    =NONE         RELWFN=NONE         LOCAL =NONE         NUMGRD=       F
 ISPHER=       1     NOSYM =       0     MAXIT =      30     UNITS =ANGS    
 PLTORB=       F     MOLPLT=       F     AIMPAC=       F     FRIEND=        
 NPRINT=       7     IREST =       0     GEOM  =INPUT   
 NORMF =       0     NORMP =       0     ITOL  =      20     ICUT  =       9
 INTTYP=BEST         GRDTYP=BEST         QMTTOL= 1.0E-06

     $SYSTEM OPTIONS
     ---------------
  REPLICATED MEMORY=     1000000 WORDS (ON EVERY NODE).
 DISTRIBUTED MEMDDI=           0 MILLION WORDS IN AGGREGATE,
 MEMDDI DISTRIBUTED OVER   1 PROCESSORS IS           0 WORDS/PROCESSOR.
 TOTAL MEMORY REQUESTED ON EACH PROCESSOR=     1000000 WORDS.
 TIMLIM=      525600.00 MINUTES, OR     365.0 DAYS.
 PARALL= F  BALTYP=  DLB     KDIAG=    0  COREFL= F
 MXSEQ2=     300 MXSEQ3=     150

          ----------------
          PROPERTIES INPUT
          ----------------

     MOMENTS            FIELD           POTENTIAL          DENSITY
 IEMOM =       1   IEFLD =       0   IEPOT =       0   IEDEN =       0
 WHERE =COMASS     WHERE =NUCLEI     WHERE =NUCLEI     WHERE =NUCLEI  
 OUTPUT=BOTH       OUTPUT=BOTH       OUTPUT=BOTH       OUTPUT=BOTH    
 IEMINT=       0   IEFINT=       0                     IEDINT=       0
                                                       MORB  =       0
          EXTRAPOLATION IN EFFECT
          DIIS IN EFFECT
 ORBITAL PRINTING OPTION: NPREO=     1    49     2     1

     -------------------------------
     INTEGRAL TRANSFORMATION OPTIONS
     -------------------------------
     NWORD  =            0
     CUTOFF = 1.0E-09     MPTRAN =       0
     DIRTRF =       F     AOINTS =DUP     

          ----------------------
          INTEGRAL INPUT OPTIONS
          ----------------------
 NOPK  =       1 NORDER=       0 SCHWRZ=       F

   --- ENCODED Z MATRIX ---
 COORD  TYPE   I   J   K   L   M   N
    1      1    3   1
    2      1    2   1
    3      2    2   1   3

 THE DETERMINANT OF THE G MATRIX IS 10**(    -4)

 THE DETERMINANT OF THE G MATRIX IS 10**(    -4)
 * * * WARNING * * *
 YOUR B MATRIX HAS A SMALL DETERMINANT.
 THIS SUGGESTS YOU MAY HAVE BADLY CHOSEN COORDINATES.

     ------------------------------------------
     THE POINT GROUP IS CNV, NAXIS= 2, ORDER= 4
     ------------------------------------------

 -- VARIATIONAL SPACE WILL BE RESTRICTED TO PURE SPHERICAL HARMONICS ONLY --
 AFTER EXCLUDING CONTAMINANT COMBINATIONS FROM THE CARTESIAN GAUSSIAN BASIS
 SET, THE NUMBER OF SPHERICAL HARMONICS KEPT IN THE VARIATION SPACE IS   46

     DIMENSIONS OF THE SYMMETRY SUBSPACES ARE
 A1  =   19     A2  =    5     B1  =   14     B2  =    8

 ..... DONE SETTING UP THE RUN .....
 STEP CPU TIME =     0.01 TOTAL CPU TIME =        0.0 (    0.0 MIN)
 TOTAL WALL CLOCK TIME=        0.0 SECONDS, CPU UTILIZATION IS  50.00%

          ********************
          1 ELECTRON INTEGRALS
          ********************
 ...... END OF ONE-ELECTRON INTEGRALS ......
 STEP CPU TIME =     0.00 TOTAL CPU TIME =        0.0 (    0.0 MIN)
 TOTAL WALL CLOCK TIME=        0.0 SECONDS, CPU UTILIZATION IS  33.33%

          -------------
          GUESS OPTIONS
          -------------
          GUESS =HUCKEL            NORB  =       0          NORDER=       0
          MIX   =       F          PRTMO =       F          PUNMO =       F
          TOLZ  = 1.0E-08          TOLE  = 1.0E-05
          SYMDEN=       F          PURIFY=       F

 INITIAL GUESS ORBITALS GENERATED BY HUCKEL   ROUTINE.
 HUCKEL GUESS REQUIRES     21583 WORDS.

 STATISTICS FOR GENERATION OF SYMMETRY ORBITAL -Q- MATRIX
 NUMBER OF CARTESIAN ATOMIC ORBITALS=         49
 NUMBER OF SPHERICAL CONTAMINANTS DROPPED=     3
 NUMBER OF LINEARLY DEPENDENT MOS DROPPED=     0
 TOTAL NUMBER OF MOS IN VARIATION SPACE=      46

 SYMMETRIES FOR INITIAL GUESS ORBITALS FOLLOW.   BOTH SET(S).
    16 ORBITALS ARE OCCUPIED (    7 CORE ORBITALS).
     8=?A1      9=?B1     10=A1      11=B1      12=B2      13=A1      14=A2  
    15=B1      16=?A1     17=B2      18=A1      19=B1      20=A1      21=A1  
    22=A1      23=A1      24=A1      25=A1      26=A1  
 ...... END OF INITIAL ORBITAL SELECTION ......
 STEP CPU TIME =     0.01 TOTAL CPU TIME =        0.0 (    0.0 MIN)
 TOTAL WALL CLOCK TIME=        0.0 SECONDS, CPU UTILIZATION IS  66.67%

                    ----------------------
                    AO INTEGRAL TECHNOLOGY
                    ----------------------
     S,P,L SHELL ROTATED AXIS INTEGRALS, REPROGRAMMED BY
        KAZUYA ISHIMURA (IMS) AND JOSE SIERRA (SYNSTAR).
     S,P,D,L SHELL ROTATED AXIS INTEGRALS PROGRAMMED BY
        KAZUYA ISHIMURA (INSTITUTE FOR MOLECULAR SCIENCE).
     S,P,D,F,G SHELL TO TOTAL QUARTET ANGULAR MOMENTUM SUM 5,
        ERIC PROGRAM BY GRAHAM FLETCHER (ELORET AND NASA ADVANCED
        SUPERCOMPUTING DIVISION, AMES RESEARCH CENTER).
     S,P,D,F,G,L SHELL GENERAL RYS QUADRATURE PROGRAMMED BY
        MICHEL DUPUIS (PACIFIC NORTHWEST NATIONAL LABORATORY).

          --------------------
          2 ELECTRON INTEGRALS
          --------------------

 THE -PK- OPTION IS OFF, THE INTEGRALS ARE NOT IN SUPERMATRIX FORM.
 STORING   15000 INTEGRALS/RECORD ON DISK, USING 12 BYTES/INTEGRAL.
 TWO ELECTRON INTEGRAL EVALUATION REQUIRES   90606 WORDS OF MEMORY.
 II,JST,KST,LST =  1  1  1  1 NREC =         1 INTLOC =    1
 II,JST,KST,LST =  2  1  1  1 NREC =         1 INTLOC =    2
 II,JST,KST,LST =  3  1  1  1 NREC =         1 INTLOC =    7
 II,JST,KST,LST =  4  1  1  1 NREC =         1 INTLOC =   22
 II,JST,KST,LST =  5  1  1  1 NREC =         1 INTLOC =   56
 II,JST,KST,LST =  6  1  1  1 NREC =         1 INTLOC =  125
 II,JST,KST,LST =  7  1  1  1 NREC =         1 INTLOC =  329
 II,JST,KST,LST =  8  1  1  1 NREC =         1 INTLOC =  776
 II,JST,KST,LST =  9  1  1  1 NREC =         1 INTLOC = 2864
 II,JST,KST,LST = 10  1  1  1 NREC =         1 INTLOC = 2864
 II,JST,KST,LST = 11  1  1  1 NREC =         1 INTLOC = 2864
 II,JST,KST,LST = 12  1  1  1 NREC =         1 INTLOC = 2864
 II,JST,KST,LST = 13  1  1  1 NREC =         1 INTLOC = 2864
 II,JST,KST,LST = 14  1  1  1 NREC =         1 INTLOC = 2864
 II,JST,KST,LST = 15  1  1  1 NREC =         1 INTLOC = 2864
 II,JST,KST,LST = 16  1  1  1 NREC =         1 INTLOC = 4836
 II,JST,KST,LST = 17  1  1  1 NREC =         1 INTLOC = 7840
 II,JST,KST,LST = 18  1  1  1 NREC =         1 INTLOC =12164
 II,JST,KST,LST = 19  1  1  1 NREC =         2 INTLOC =12718
 II,JST,KST,LST = 20  1  1  1 NREC =         4 INTLOC =12570
 TOTAL NUMBER OF NONZERO TWO-ELECTRON INTEGRALS =              152022
         11 INTEGRAL RECORDS WERE STORED ON DISK FILE  8.
  ...... END OF TWO-ELECTRON INTEGRALS .....
 STEP CPU TIME =     0.15 TOTAL CPU TIME =        0.2 (    0.0 MIN)
 TOTAL WALL CLOCK TIME=        0.2 SECONDS, CPU UTILIZATION IS  94.44%

          --------------------------
               R-PBE SCF CALCULATION
          --------------------------

     NUCLEAR ENERGY =        85.2721184046
     MAXIT =   30     NPUNCH=    2
     EXTRAP=T  DAMP=F  SHIFT=F  RSTRCT=F  DIIS=T  DEM=F  SOSCF=F
         DENSITY MATRIX CONVERGENCE THRESHOLD=  1.00E-05
     COARSE -> FINE DFT GRID SWITCH THRESHOLD=  3.00E-04 (SWITCH IN $DFT)
                   HF -> DFT SWITCH THRESHOLD=  5.00E-03 (SWOFF IN $DFT)
     MEMORY REQUIRED FOR RHF ITERS=    183108 WORDS.

 DFT CODE IS SWITCHING FROM THE FINE GRID NRAD= 96,  NLEB=  302
                      TO THE COARSE GRID NRAD0= 24, NLEB0=  110

     EXCHANGE FUNCTIONAL   =PBE       
     CORRELATION FUNCTIONAL=PBE       
     DFT THRESHOLD         =.460E-07
     GRID CHANGE THRESHOLD =.300E-03
 FOR AN EULER-MACLAURIN QUADRATURE USING  96 RADIAL POINTS:
 SMALLEST GAUSSIAN PRIMITIVE EXPONENT=        0.1313100000 OF TYPE -P-
 ON ATOM NUMBER   1 HAS RADIAL NORMALIZATION=  1.000000
  LARGEST GAUSSIAN PRIMITIVE EXPONENT=    55510.0000000000 OF TYPE -S-
 ON ATOM NUMBER   1 HAS RADIAL NORMALIZATION=  0.999999
 DFT IS SWITCHED OFF, PERFORMING PURE SCF UNTIL SWOFF THRESHOLD IS REACHED.

 ITER EX DEM     TOTAL ENERGY        E CHANGE  DENSITY CHANGE    DIIS ERROR
   1  0  0     -545.8172975029  -545.8172975029   0.584687588   0.945309073
   2  1  0     -546.0405182945    -0.2232207917   0.796782580   0.577162255
   3  2  0     -545.7034910003     0.3370272943   0.927829671   0.623572139
   4  3  0     -544.8282572252     0.8752337751   1.053044882   0.996069076
   5  0  0     -544.2501225750     0.5781346502   0.620002518   0.878307633
          * * *   INITIATING DIIS PROCEDURE   * * *
   6  1  0     -546.8614232048    -2.6113006299   0.204865474   0.064684576
   7  2  0     -546.8707852375    -0.0093620326   0.064856659   0.081660959
   8  3  0     -546.8899114997    -0.0191262623   0.027757108   0.021150583
   9  4  0     -546.8927877617    -0.0028762620   0.031895339   0.011292472
  10  5  0     -546.8946389082    -0.0018511465   0.021536711   0.005635141
  11  6  0     -546.8954498299    -0.0008109216   0.017569072   0.003988438
  12  7  0     -546.8957839577    -0.0003341278   0.006191589   0.001752979
  13  8  0     -546.8958202039    -0.0000362462   0.001018282   0.000214020
 CONVERGED TO SWOFF, SO DFT CALCULATION IS NOW SWITCHED ON.
          * * *   INITIATING DIIS PROCEDURE   * * *
  14  9  0     -548.0773142218    -1.1814940179   0.471082876   0.105629422
  15 10  0     -548.0496818986     0.0276323232   0.383450432   0.186024887
  16 11  0     -548.0302886084     0.0193932902   0.135895172   0.243709605
  17 12  0     -548.1507142317    -0.1204256233   0.020216556   0.013962341
  18 13  0     -548.1517856088    -0.0010713771   0.003815885   0.004599208
  19 14  0     -548.1518305882    -0.0000449794   0.000764018   0.000414960
  20 15  0     -548.1518314409    -0.0000008527   0.000175596   0.000104087
 DFT CODE IS SWITCHING BACK TO THE FINE GRID
          * * *   INITIATING DIIS PROCEDURE   * * *
  21 16  0     -548.1520895682    -0.0002581273   0.014927080   0.016482081
  22 17  0     -548.1523781892    -0.0002886210   0.019534427   0.005142181
  23 18  0     -548.1515016327     0.0008765565   0.016789208   0.021146994
  24 19  0     -548.1524509938    -0.0009493610   0.000978802   0.000627325
  25 20  0     -548.1524534980    -0.0000025042   0.000116881   0.000163106
  26 21  0     -548.1524535874    -0.0000000894   0.000046260   0.000028870
  27 22  0     -548.1524535903    -0.0000000029   0.000008819   0.000006347
  28 23  0     -548.1524535904    -0.0000000001   0.000000237   0.000000329

          -----------------
          DENSITY CONVERGED
          -----------------
     TIME TO FORM FOCK OPERATORS=       4.1 SECONDS (       0.1 SEC/ITER)
     TIME TO SOLVE SCF EQUATIONS=       0.0 SECONDS (       0.0 SEC/ITER)

 FINAL R-PBE ENERGY IS     -548.1524535904 AFTER  28 ITERATIONS
 DFT EXCHANGE + CORRELATION ENERGY =       -42.1752816459
 TOTAL ELECTRON NUMBER             =        32.0000025078

          ------------
          EIGENVECTORS
          ------------

                      1          2          3          4          5
                  -88.2257   -18.8377   -18.8376    -7.8447    -5.8662
                     A1         B1         A1         A1         B1  
    1  S  1  S    1.002978   0.000000  -0.000052  -0.274134   0.000000
    2  S  1  S   -0.010280   0.000000  -0.000901   1.039488   0.000000
    3  S  1  S    0.001767   0.000000  -0.001626   0.040226   0.000000
    4  S  1  S   -0.000938   0.000000   0.006115  -0.012172   0.000000
    5  S  1  X    0.000000   0.000139   0.000000   0.000000   0.996904
    6  S  1  Y    0.000000   0.000000   0.000000   0.000000   0.000000
    7  S  1  Z    0.000058   0.000000  -0.000056   0.008976   0.000000
    8  S  1  X    0.000000  -0.000733   0.000000   0.000000   0.008845
    9  S  1  Y    0.000000   0.000000   0.000000   0.000000   0.000000
   10  S  1  Z    0.000000   0.000000   0.000314   0.000603   0.000000
   11  S  1  X    0.000000  -0.005882   0.000000   0.000000  -0.000133
   12  S  1  Y    0.000000   0.000000   0.000000   0.000000   0.000000
   13  S  1  Z   -0.000034   0.000000   0.001782  -0.000449   0.000000
   14  S  1 XX    0.000001   0.000000   0.001396   0.000368   0.000000
   15  S  1 YY    0.000001   0.000000  -0.000896  -0.000160   0.000000
   16  S  1 ZZ   -0.000002   0.000000  -0.000500  -0.000208   0.000000
   17  S  1 XY    0.000000   0.000000   0.000000   0.000000   0.000000
   18  S  1 XZ    0.000000  -0.001174   0.000000   0.000000   0.000531
   19  S  1 YZ    0.000000   0.000000   0.000000   0.000000   0.000000
   20  O  2  S    0.000000   0.703265   0.703227   0.000026   0.000047
   21  O  2  S    0.000001   0.025351   0.024851   0.000068   0.000073
   22  O  2  S    0.000076  -0.011481  -0.009827   0.000573  -0.000051
   23  O  2  X    0.000010   0.000727   0.000803  -0.000041   0.000004
   24  O  2  Y    0.000000   0.000000   0.000000   0.000000   0.000000
   25  O  2  Z   -0.000007  -0.000374  -0.000159  -0.000016  -0.000015
   26  O  2  X   -0.000015  -0.002403  -0.002470  -0.000364  -0.000061
   27  O  2  Y    0.000000   0.000000   0.000000   0.000000   0.000000
   28  O  2  Z    0.000018   0.001400   0.000441   0.000269   0.000068
   29  O  2 XX   -0.000048  -0.000221  -0.000349  -0.000591  -0.000132
   30  O  2 YY    0.000030   0.000165   0.000218   0.000366   0.000088
   31  O  2 ZZ    0.000018   0.000056   0.000131   0.000224   0.000044
   32  O  2 XY    0.000000   0.000000   0.000000   0.000000   0.000000
   33  O  2 XZ    0.000035   0.000216   0.000198   0.000425   0.000112
   34  O  2 YZ    0.000000   0.000000   0.000000   0.000000   0.000000
   35  O  3  S    0.000000  -0.703265   0.703227   0.000026  -0.000047
   36  O  3  S    0.000001  -0.025351   0.024851   0.000068  -0.000073
   37  O  3  S    0.000076   0.011481  -0.009827   0.000573   0.000051
   38  O  3  X   -0.000010   0.000727  -0.000803   0.000041   0.000004
   39  O  3  Y    0.000000   0.000000   0.000000   0.000000   0.000000
   40  O  3  Z   -0.000007   0.000374  -0.000159  -0.000016   0.000015
   41  O  3  X    0.000015  -0.002403   0.002470   0.000364  -0.000061
   42  O  3  Y    0.000000   0.000000   0.000000   0.000000   0.000000
   43  O  3  Z    0.000018  -0.001400   0.000441   0.000269  -0.000068
   44  O  3 XX   -0.000048   0.000221  -0.000349  -0.000591   0.000132
   45  O  3 YY    0.000030  -0.000165   0.000218   0.000366  -0.000088
   46  O  3 ZZ    0.000018  -0.000056   0.000131   0.000224  -0.000044
   47  O  3 XY    0.000000   0.000000   0.000000   0.000000   0.000000
   48  O  3 XZ   -0.000035   0.000216  -0.000198  -0.000425   0.000112
   49  O  3 YZ    0.000000   0.000000   0.000000   0.000000   0.000000

                      6          7          8          9         10
                   -5.8637    -5.8616    -0.9263    -0.8916    -0.6572
                     B2         A1         A1         B1         A1  
    1  S  1  S    0.000000   0.002470   0.041005   0.000000   0.075211
    2  S  1  S    0.000000  -0.009455  -0.120758   0.000000  -0.215149
    3  S  1  S    0.000000  -0.000105   0.240797   0.000000   0.468453
    4  S  1  S    0.000000  -0.000271   0.183872   0.000000   0.445670
    5  S  1  X    0.000000   0.000000   0.000000   0.075396   0.000000
    6  S  1  Y    0.996958   0.000000   0.000000   0.000000   0.000000
    7  S  1  Z    0.000000   0.996953  -0.027015   0.000000   0.004927
    8  S  1  X    0.000000   0.000000   0.000000  -0.151954   0.000000
    9  S  1  Y    0.008735   0.000000   0.000000   0.000000   0.000000
   10  S  1  Z    0.000000   0.008607   0.056244   0.000000  -0.005074
   11  S  1  X    0.000000   0.000000   0.000000  -0.028747   0.000000
   12  S  1  Y   -0.000136   0.000000   0.000000   0.000000   0.000000
   13  S  1  Z    0.000000  -0.000157   0.010539   0.000000  -0.016161
   14  S  1 XX    0.000000  -0.000372   0.035520   0.000000  -0.010983
   15  S  1 YY    0.000000  -0.000223  -0.021601   0.000000   0.008439
   16  S  1 ZZ    0.000000   0.000594  -0.013919   0.000000   0.002545
   17  S  1 XY    0.000000   0.000000   0.000000   0.000000   0.000000
   18  S  1 XZ    0.000000   0.000000   0.000000  -0.028508   0.000000
   19  S  1 YZ    0.000477   0.000000   0.000000   0.000000   0.000000
   20  O  2  S    0.000000  -0.000026  -0.134285  -0.153469   0.093099
   21  O  2  S    0.000000  -0.000107   0.270292   0.309873  -0.194631
   22  O  2  S    0.000000   0.000216   0.334529   0.396002  -0.290277
   23  O  2  X    0.000000   0.000002   0.069306   0.060042   0.095078
   24  O  2  Y    0.000002   0.000000   0.000000   0.000000   0.000000
   25  O  2  Z    0.000000   0.000005  -0.023337  -0.021678  -0.032853
   26  O  2  X    0.000000   0.000149   0.035203   0.035072   0.043733
   27  O  2  Y   -0.000045   0.000000   0.000000   0.000000   0.000000
   28  O  2  Z    0.000000  -0.000115  -0.011881  -0.013420  -0.011620
   29  O  2 XX    0.000000   0.000088   0.009215   0.007741   0.005663
   30  O  2 YY    0.000000  -0.000060  -0.003746  -0.002789  -0.004582
   31  O  2 ZZ    0.000000  -0.000028  -0.005469  -0.004952  -0.001081
   32  O  2 XY   -0.000020   0.000000   0.000000   0.000000   0.000000
   33  O  2 XZ    0.000000  -0.000092  -0.004425  -0.004063  -0.004472
   34  O  2 YZ    0.000004   0.000000   0.000000   0.000000   0.000000
   35  O  3  S    0.000000  -0.000026  -0.134285   0.153469   0.093099
   36  O  3  S    0.000000  -0.000107   0.270292  -0.309873  -0.194631
   37  O  3  S    0.000000   0.000216   0.334529  -0.396002  -0.290277
   38  O  3  X    0.000000  -0.000002  -0.069306   0.060042  -0.095078
   39  O  3  Y    0.000002   0.000000   0.000000   0.000000   0.000000
   40  O  3  Z    0.000000   0.000005  -0.023337   0.021678  -0.032853
   41  O  3  X    0.000000  -0.000149  -0.035203   0.035072  -0.043733
   42  O  3  Y   -0.000045   0.000000   0.000000   0.000000   0.000000
   43  O  3  Z    0.000000  -0.000115  -0.011881   0.013420  -0.011620
   44  O  3 XX    0.000000   0.000088   0.009215  -0.007741   0.005663
   45  O  3 YY    0.000000  -0.000060  -0.003746   0.002789  -0.004582
   46  O  3 ZZ    0.000000  -0.000028  -0.005469   0.004952  -0.001081
   47  O  3 XY    0.000020   0.000000   0.000000   0.000000   0.000000
   48  O  3 XZ    0.000000   0.000092   0.004425  -0.004063   0.004472
   49  O  3 YZ    0.000004   0.000000   0.000000   0.000000   0.000000

                     11         12         13         14         15
                   -0.4325    -0.3860    -0.3838    -0.3130    -0.3031
                     B1         A1         B2         A2         B1  
    1  S  1  S    0.000000  -0.010417   0.000000   0.000000   0.000000
    2  S  1  S    0.000000   0.039192   0.000000   0.000000   0.000000
    3  S  1  S    0.000000  -0.053955   0.000000   0.000000   0.000000
    4  S  1  S    0.000000  -0.151386   0.000000   0.000000   0.000000
    5  S  1  X   -0.182601   0.000000   0.000000   0.000000  -0.020328
    6  S  1  Y    0.000000   0.000000  -0.209996   0.000000   0.000000
    7  S  1  Z    0.000000  -0.210906   0.000000   0.000000   0.000000
    8  S  1  X    0.430985   0.000000   0.000000   0.000000   0.044478
    9  S  1  Y    0.000000   0.000000   0.495032   0.000000   0.000000
   10  S  1  Z    0.000000   0.496203   0.000000   0.000000   0.000000
   11  S  1  X    0.117889   0.000000   0.000000   0.000000   0.094107
   12  S  1  Y    0.000000   0.000000   0.328558   0.000000   0.000000
   13  S  1  Z    0.000000   0.306675   0.000000   0.000000   0.000000
   14  S  1 XX    0.000000  -0.000542   0.000000   0.000000   0.000000
   15  S  1 YY    0.000000  -0.020190   0.000000   0.000000   0.000000
   16  S  1 ZZ    0.000000   0.020733   0.000000   0.000000   0.000000
   17  S  1 XY    0.000000   0.000000   0.000000  -0.077312   0.000000
   18  S  1 XZ    0.031011   0.000000   0.000000   0.000000  -0.071785
   19  S  1 YZ    0.000000   0.000000   0.023787   0.000000   0.000000
   20  O  2  S   -0.052062   0.014403   0.000000   0.000000  -0.002929
   21  O  2  S    0.113632  -0.028758   0.000000   0.000000   0.001161
   22  O  2  S    0.178044  -0.060706   0.000000   0.000000   0.039273
   23  O  2  X   -0.329749   0.236459   0.000000   0.000000   0.214932
   24  O  2  Y    0.000000   0.000000   0.288042   0.473107   0.000000
   25  O  2  Z    0.134696   0.168487   0.000000   0.000000   0.418979
   26  O  2  X   -0.206282   0.151280   0.000000   0.000000   0.160545
   27  O  2  Y    0.000000   0.000000   0.180530   0.336106   0.000000
   28  O  2  Z    0.088242   0.106399   0.000000   0.000000   0.291592
   29  O  2 XX   -0.010979   0.012070   0.000000   0.000000   0.007766
   30  O  2 YY    0.008042  -0.003460   0.000000   0.000000  -0.000116
   31  O  2 ZZ    0.002937  -0.008610   0.000000   0.000000  -0.007650
   32  O  2 XY    0.000000   0.000000   0.013314   0.012346   0.000000
   33  O  2 XZ    0.010335   0.006076   0.000000   0.000000   0.009421
   34  O  2 YZ    0.000000   0.000000  -0.004675  -0.004765   0.000000
   35  O  3  S    0.052062   0.014403   0.000000   0.000000   0.002929
   36  O  3  S   -0.113632  -0.028758   0.000000   0.000000  -0.001161
   37  O  3  S   -0.178044  -0.060706   0.000000   0.000000  -0.039273
   38  O  3  X   -0.329749  -0.236459   0.000000   0.000000   0.214932
   39  O  3  Y    0.000000   0.000000   0.288042  -0.473107   0.000000
   40  O  3  Z   -0.134696   0.168487   0.000000   0.000000  -0.418979
   41  O  3  X   -0.206282  -0.151280   0.000000   0.000000   0.160545
   42  O  3  Y    0.000000   0.000000   0.180530  -0.336106   0.000000
   43  O  3  Z   -0.088242   0.106399   0.000000   0.000000  -0.291592
   44  O  3 XX    0.010979   0.012070   0.000000   0.000000  -0.007766
   45  O  3 YY   -0.008042  -0.003460   0.000000   0.000000   0.000116
   46  O  3 ZZ   -0.002937  -0.008610   0.000000   0.000000   0.007650
   47  O  3 XY    0.000000   0.000000  -0.013314   0.012346   0.000000
   48  O  3 XZ    0.010335  -0.006076   0.000000   0.000000   0.009421
   49  O  3 YZ    0.000000   0.000000  -0.004675   0.004765   0.000000

                     16         17         18         19         20
                   -0.2829    -0.2351    -0.1867    -0.0431     0.3262
                     A1         B2         A1         B1         B1  
    1  S  1  S    0.019896   0.000000   0.020903   0.000000   0.000000
    2  S  1  S   -0.077873   0.000000  -0.063145   0.000000   0.000000
    3  S  1  S    0.102291   0.000000   0.135139   0.000000   0.000000
    4  S  1  S    0.344077   0.000000   0.296406   0.000000   0.000000
    5  S  1  X    0.000000   0.000000   0.000000  -0.233957   0.257307
    6  S  1  Y    0.000000  -0.199577   0.000000   0.000000   0.000000
    7  S  1  Z    0.055566   0.000000  -0.191342   0.000000   0.000000
    8  S  1  X    0.000000   0.000000   0.000000   0.606032  -1.005753
    9  S  1  Y    0.000000   0.496547   0.000000   0.000000   0.000000
   10  S  1  Z   -0.137127   0.000000   0.482605   0.000000   0.000000
   11  S  1  X    0.000000   0.000000   0.000000   0.795298   1.598091
   12  S  1  Y    0.000000   0.357717   0.000000   0.000000   0.000000
   13  S  1  Z   -0.032330   0.000000   0.416023   0.000000   0.000000
   14  S  1 XX   -0.110815   0.000000  -0.081681   0.000000   0.000000
   15  S  1 YY    0.049656   0.000000   0.062301   0.000000   0.000000
   16  S  1 ZZ    0.061159   0.000000   0.019380   0.000000   0.000000
   17  S  1 XY    0.000000   0.000000   0.000000   0.000000   0.000000
   18  S  1 XZ    0.000000   0.000000   0.000000  -0.119038  -0.176820
   19  S  1 YZ    0.000000  -0.018252   0.000000   0.000000   0.000000
   20  O  2  S   -0.000919   0.000000   0.019168  -0.048402  -0.021508
   21  O  2  S    0.004572   0.000000  -0.039347   0.090317  -0.016845
   22  O  2  S   -0.026770   0.000000  -0.126304   0.377847   0.542399
   23  O  2  X   -0.204823   0.000000  -0.378541   0.274423  -0.240837
   24  O  2  Y    0.000000  -0.400325   0.000000   0.000000   0.000000
   25  O  2  Z    0.421448   0.000000  -0.154288  -0.226275  -0.028936
   26  O  2  X   -0.151467   0.000000  -0.296644   0.297453   0.239031
   27  O  2  Y    0.000000  -0.294057   0.000000   0.000000   0.000000
   28  O  2  Z    0.301101   0.000000  -0.112433  -0.194966  -0.107492
   29  O  2 XX   -0.002094   0.000000   0.000007   0.001864   0.045182
   30  O  2 YY    0.003905   0.000000   0.001195   0.001808  -0.023880
   31  O  2 ZZ   -0.001811   0.000000  -0.001202  -0.003672  -0.021303
   32  O  2 XY    0.000000  -0.000622   0.000000   0.000000   0.000000
   33  O  2 XZ    0.009855   0.000000   0.003935   0.006250  -0.020373
   34  O  2 YZ    0.000000   0.000203   0.000000   0.000000   0.000000
   35  O  3  S   -0.000919   0.000000   0.019168   0.048402   0.021508
   36  O  3  S    0.004572   0.000000  -0.039347  -0.090317   0.016845
   37  O  3  S   -0.026770   0.000000  -0.126304  -0.377847  -0.542399
   38  O  3  X    0.204823   0.000000   0.378541   0.274423  -0.240837
   39  O  3  Y    0.000000  -0.400325   0.000000   0.000000   0.000000
   40  O  3  Z    0.421448   0.000000  -0.154288   0.226275   0.028936
   41  O  3  X    0.151467   0.000000   0.296644   0.297453   0.239031
   42  O  3  Y    0.000000  -0.294057   0.000000   0.000000   0.000000
   43  O  3  Z    0.301101   0.000000  -0.112433   0.194966   0.107492
   44  O  3 XX   -0.002094   0.000000   0.000007  -0.001864  -0.045182
   45  O  3 YY    0.003905   0.000000   0.001195  -0.001808   0.023880
   46  O  3 ZZ   -0.001811   0.000000  -0.001202   0.003672   0.021303
   47  O  3 XY    0.000000   0.000622   0.000000   0.000000   0.000000
   48  O  3 XZ   -0.009855   0.000000  -0.003935   0.006250  -0.020373
   49  O  3 YZ    0.000000   0.000203   0.000000   0.000000   0.000000

                     21         22         23         24         25
                    0.3660     0.3681     0.3895     0.4643     0.4956
                     A1         B2         A1         A2         A1  
    1  S  1  S   -0.022615   0.000000  -0.106616   0.000000   0.005602
    2  S  1  S   -0.114404   0.000000  -0.371144   0.000000   0.019667
    3  S  1  S   -0.390541   0.000000  -1.629471   0.000000   0.085925
    4  S  1  S    0.615255   0.000000   1.892574   0.000000  -0.102015
    5  S  1  X    0.000000   0.000000   0.000000   0.000000   0.000000
    6  S  1  Y    0.000000   0.295293   0.000000   0.000000   0.000000
    7  S  1  Z    0.279516   0.000000  -0.078280   0.000000   0.038267
    8  S  1  X    0.000000   0.000000   0.000000   0.000000   0.000000
    9  S  1  Y    0.000000  -1.141946   0.000000   0.000000   0.000000
   10  S  1  Z   -1.083426   0.000000   0.298832   0.000000  -0.140844
   11  S  1  X    0.000000   0.000000   0.000000   0.000000   0.000000
   12  S  1  Y    0.000000   1.225683   0.000000   0.000000   0.000000
   13  S  1  Z    1.254740   0.000000  -0.232463   0.000000   0.085832
   14  S  1 XX   -0.061385   0.000000  -0.319295   0.000000  -0.124804
   15  S  1 YY    0.150617   0.000000   0.159264   0.000000  -0.757013
   16  S  1 ZZ   -0.089233   0.000000   0.160031   0.000000   0.881817
   17  S  1 XY    0.000000   0.000000   0.000000   0.848823   0.000000
   18  S  1 XZ    0.000000   0.000000   0.000000   0.000000   0.000000
   19  S  1 YZ    0.000000  -0.121647   0.000000   0.000000   0.000000
   20  O  2  S    0.010280   0.000000   0.010032   0.000000  -0.001817
   21  O  2  S   -0.003070   0.000000  -0.021669   0.000000   0.009154
   22  O  2  S   -0.219560   0.000000  -0.165757   0.000000   0.000896
   23  O  2  X    0.052139   0.000000   0.062844   0.000000  -0.053420
   24  O  2  Y    0.000000  -0.098332   0.000000   0.335914   0.000000
   25  O  2  Z   -0.139845   0.000000  -0.081906   0.000000  -0.166769
   26  O  2  X   -0.152710   0.000000  -0.116818   0.000000   0.048485
   27  O  2  Y    0.000000  -0.082287   0.000000  -0.203187   0.000000
   28  O  2  Z   -0.024388   0.000000   0.091927   0.000000   0.096377
   29  O  2 XX   -0.026670   0.000000  -0.028481   0.000000   0.014653
   30  O  2 YY    0.016159   0.000000   0.022462   0.000000  -0.011818
   31  O  2 ZZ    0.010511   0.000000   0.006019   0.000000  -0.002835
   32  O  2 XY    0.000000  -0.008794   0.000000  -0.050062   0.000000
   33  O  2 XZ    0.011794   0.000000   0.034972   0.000000   0.023570
   34  O  2 YZ    0.000000   0.001580   0.000000   0.022655   0.000000
   35  O  3  S    0.010280   0.000000   0.010032   0.000000  -0.001817
   36  O  3  S   -0.003070   0.000000  -0.021669   0.000000   0.009154
   37  O  3  S   -0.219560   0.000000  -0.165757   0.000000   0.000896
   38  O  3  X   -0.052139   0.000000  -0.062844   0.000000   0.053420
   39  O  3  Y    0.000000  -0.098332   0.000000  -0.335914   0.000000
   40  O  3  Z   -0.139845   0.000000  -0.081906   0.000000  -0.166769
   41  O  3  X    0.152710   0.000000   0.116818   0.000000  -0.048485
   42  O  3  Y    0.000000  -0.082287   0.000000   0.203187   0.000000
   43  O  3  Z   -0.024388   0.000000   0.091927   0.000000   0.096377
   44  O  3 XX   -0.026670   0.000000  -0.028481   0.000000   0.014653
   45  O  3 YY    0.016159   0.000000   0.022462   0.000000  -0.011818
   46  O  3 ZZ    0.010511   0.000000   0.006019   0.000000  -0.002835
   47  O  3 XY    0.000000   0.008794   0.000000  -0.050062   0.000000
   48  O  3 XZ   -0.011794   0.000000  -0.034972   0.000000  -0.023570
   49  O  3 YZ    0.000000   0.001580   0.000000  -0.022655   0.000000

                     26         27         28         29         30
                    0.4960     0.5823     0.6827     0.7884     0.7973
                     B2         B1         A1         B1         A2  
    1  S  1  S    0.000000   0.000000  -0.040040   0.000000   0.000000
    2  S  1  S    0.000000   0.000000  -0.226196   0.000000   0.000000
    3  S  1  S    0.000000   0.000000  -0.721979   0.000000   0.000000
    4  S  1  S    0.000000   0.000000   1.317879   0.000000   0.000000
    5  S  1  X    0.000000   0.030521   0.000000  -0.053564   0.000000
    6  S  1  Y    0.034498   0.000000   0.000000   0.000000   0.000000
    7  S  1  Z    0.000000   0.000000  -0.006695   0.000000   0.000000
    8  S  1  X    0.000000  -0.165678   0.000000   0.282021   0.000000
    9  S  1  Y   -0.127222   0.000000   0.000000   0.000000   0.000000
   10  S  1  Z    0.000000   0.000000   0.008297   0.000000   0.000000
   11  S  1  X    0.000000   0.847902   0.000000  -0.146220   0.000000
   12  S  1  Y    0.081088   0.000000   0.000000   0.000000   0.000000
   13  S  1  Z    0.000000   0.000000   0.341216   0.000000   0.000000
   14  S  1 XX    0.000000   0.000000   0.850821   0.000000   0.000000
   15  S  1 YY    0.000000   0.000000  -0.606111   0.000000   0.000000
   16  S  1 ZZ    0.000000   0.000000  -0.244710   0.000000   0.000000
   17  S  1 XY    0.000000   0.000000   0.000000   0.000000   0.544220
   18  S  1 XZ    0.000000   0.861035   0.000000   0.413195   0.000000
   19  S  1 YZ    0.963714   0.000000   0.000000   0.000000   0.000000
   20  O  2  S    0.000000  -0.047396   0.057698  -0.012658   0.000000
   21  O  2  S    0.000000   0.215302  -0.327482   0.076726   0.000000
   22  O  2  S    0.000000   0.240219  -0.098165  -0.047180   0.000000
   23  O  2  X    0.000000   0.088128   0.108006  -0.398895   0.000000
   24  O  2  Y   -0.157285   0.000000   0.000000   0.000000  -0.555229
   25  O  2  Z    0.000000   0.256948   0.144623  -0.413567   0.000000
   26  O  2  X    0.000000   0.258963  -0.576080   0.610309   0.000000
   27  O  2  Y    0.098180   0.000000   0.000000   0.000000   0.728557
   28  O  2  Z    0.000000  -0.351577   0.001236   0.487467   0.000000
   29  O  2 XX    0.000000  -0.032502   0.009760  -0.051949   0.000000
   30  O  2 YY    0.000000   0.001073  -0.019285   0.020052   0.000000
   31  O  2 ZZ    0.000000   0.031429   0.009525   0.031897   0.000000
   32  O  2 XY    0.025414   0.000000   0.000000   0.000000  -0.048896
   33  O  2 XZ    0.000000  -0.028680  -0.033367   0.000829   0.000000
   34  O  2 YZ    0.006045   0.000000   0.000000   0.000000   0.021462
   35  O  3  S    0.000000   0.047396   0.057698   0.012658   0.000000
   36  O  3  S    0.000000  -0.215302  -0.327482  -0.076726   0.000000
   37  O  3  S    0.000000  -0.240219  -0.098165   0.047180   0.000000
   38  O  3  X    0.000000   0.088128  -0.108006  -0.398895   0.000000
   39  O  3  Y   -0.157285   0.000000   0.000000   0.000000   0.555229
   40  O  3  Z    0.000000  -0.256948   0.144623   0.413567   0.000000
   41  O  3  X    0.000000   0.258963   0.576080   0.610309   0.000000
   42  O  3  Y    0.098180   0.000000   0.000000   0.000000  -0.728557
   43  O  3  Z    0.000000   0.351577   0.001236  -0.487467   0.000000
   44  O  3 XX    0.000000   0.032502   0.009760   0.051949   0.000000
   45  O  3 YY    0.000000  -0.001073  -0.019285  -0.020052   0.000000
   46  O  3 ZZ    0.000000  -0.031429   0.009525  -0.031897   0.000000
   47  O  3 XY   -0.025414   0.000000   0.000000   0.000000  -0.048896
   48  O  3 XZ    0.000000  -0.028680   0.033367   0.000829   0.000000
   49  O  3 YZ    0.006045   0.000000   0.000000   0.000000  -0.021462

                     31         32         33         34         35
                    0.8114     0.8154     0.8284     0.8365     1.5136
                     A1         B2         B1         A1         A1  
    1  S  1  S    0.029328   0.000000   0.000000  -0.018798  -0.023729
    2  S  1  S    0.075189   0.000000   0.000000  -0.060251  -0.244447
    3  S  1  S    0.429888   0.000000   0.000000  -0.288185  -0.559418
    4  S  1  S    0.022075   0.000000   0.000000   0.134531   1.494820
    5  S  1  X    0.000000   0.000000  -0.095610   0.000000   0.000000
    6  S  1  Y    0.000000  -0.030485   0.000000   0.000000   0.000000
    7  S  1  Z   -0.047912   0.000000   0.000000  -0.010335  -0.008937
    8  S  1  X    0.000000   0.000000   0.500661   0.000000   0.000000
    9  S  1  Y    0.000000   0.161352   0.000000   0.000000   0.000000
   10  S  1  Z    0.253595   0.000000   0.000000   0.049563   0.032349
   11  S  1  X    0.000000   0.000000  -0.122950   0.000000   0.000000
   12  S  1  Y    0.000000  -0.546188   0.000000   0.000000   0.000000
   13  S  1  Z   -0.293250   0.000000   0.000000  -0.384150   0.435360
   14  S  1 XX    0.006183   0.000000   0.000000   0.437794   0.398971
   15  S  1 YY    0.109421   0.000000   0.000000  -0.078551  -0.265031
   16  S  1 ZZ   -0.115604   0.000000   0.000000  -0.359243  -0.133940
   17  S  1 XY    0.000000   0.000000   0.000000   0.000000   0.000000
   18  S  1 XZ    0.000000   0.000000  -0.288227   0.000000   0.000000
   19  S  1 YZ    0.000000  -0.242847   0.000000   0.000000   0.000000
   20  O  2  S    0.009831   0.000000  -0.010489   0.002020  -0.014203
   21  O  2  S   -0.094292   0.000000   0.128751   0.042195   1.098540
   22  O  2  S    0.082706   0.000000  -0.127085  -0.050232  -1.463082
   23  O  2  X    0.413325   0.000000  -0.440782  -0.452430   0.126212
   24  O  2  Y    0.000000  -0.614472   0.000000   0.000000   0.000000
   25  O  2  Z   -0.459573   0.000000   0.401157  -0.368643   0.017157
   26  O  2  X   -0.541752   0.000000   0.569494   0.506907  -0.583522
   27  O  2  Y    0.000000   0.841125   0.000000   0.000000   0.000000
   28  O  2  Z    0.611643   0.000000  -0.525956   0.568359   0.066700
   29  O  2 XX    0.027130   0.000000  -0.012836  -0.014871   0.176482
   30  O  2 YY   -0.016349   0.000000   0.019973  -0.005093  -0.110558
   31  O  2 ZZ   -0.010781   0.000000  -0.007137   0.019964  -0.065924
   32  O  2 XY    0.000000  -0.026909   0.000000   0.000000   0.000000
   33  O  2 XZ   -0.026730   0.000000   0.041919  -0.044784  -0.102379
   34  O  2 YZ    0.000000   0.004104   0.000000   0.000000   0.000000
   35  O  3  S    0.009831   0.000000   0.010489   0.002020  -0.014203
   36  O  3  S   -0.094292   0.000000  -0.128751   0.042195   1.098540
   37  O  3  S    0.082706   0.000000   0.127085  -0.050232  -1.463082
   38  O  3  X   -0.413325   0.000000  -0.440782   0.452430  -0.126212
   39  O  3  Y    0.000000  -0.614472   0.000000   0.000000   0.000000
   40  O  3  Z   -0.459573   0.000000  -0.401157  -0.368643   0.017157
   41  O  3  X    0.541752   0.000000   0.569494  -0.506907   0.583522
   42  O  3  Y    0.000000   0.841125   0.000000   0.000000   0.000000
   43  O  3  Z    0.611643   0.000000   0.525956   0.568359   0.066700
   44  O  3 XX    0.027130   0.000000   0.012836  -0.014871   0.176482
   45  O  3 YY   -0.016349   0.000000  -0.019973  -0.005093  -0.110558
   46  O  3 ZZ   -0.010781   0.000000   0.007137   0.019964  -0.065924
   47  O  3 XY    0.000000   0.026909   0.000000   0.000000   0.000000
   48  O  3 XZ    0.026730   0.000000   0.041919   0.044784   0.102379
   49  O  3 YZ    0.000000   0.004104   0.000000   0.000000   0.000000

                     36         37         38         39         40
                    1.6260     2.0793     2.0794     2.0834     2.0840
                     B1         B1         A2         B2         A1  
    1  S  1  S    0.000000   0.000000   0.000000   0.000000  -0.000585
    2  S  1  S    0.000000   0.000000   0.000000   0.000000  -0.003277
    3  S  1  S    0.000000   0.000000   0.000000   0.000000  -0.010489
    4  S  1  S    0.000000   0.000000   0.000000   0.000000   0.018955
    5  S  1  X   -0.023720  -0.001696   0.000000   0.000000   0.000000
    6  S  1  Y    0.000000   0.000000   0.000000  -0.002715   0.000000
    7  S  1  Z    0.000000   0.000000   0.000000   0.000000   0.000753
    8  S  1  X    0.071482   0.003131   0.000000   0.000000   0.000000
    9  S  1  Y    0.000000   0.000000   0.000000   0.003629   0.000000
   10  S  1  Z    0.000000   0.000000   0.000000   0.000000  -0.003043
   11  S  1  X    1.278702   0.025885   0.000000   0.000000   0.000000
   12  S  1  Y    0.000000   0.000000   0.000000   0.021796   0.000000
   13  S  1  Z    0.000000   0.000000   0.000000   0.000000   0.008335
   14  S  1 XX    0.000000   0.000000   0.000000   0.000000   0.006539
   15  S  1 YY    0.000000   0.000000   0.000000   0.000000  -0.038139
   16  S  1 ZZ    0.000000   0.000000   0.000000   0.000000   0.031600
   17  S  1 XY    0.000000   0.000000   0.031902   0.000000   0.000000
   18  S  1 XZ    0.322316  -0.032304   0.000000   0.000000   0.000000
   19  S  1 YZ    0.000000   0.000000   0.000000  -0.022623   0.000000
   20  O  2  S    0.009323   0.000471   0.000000   0.000000   0.000629
   21  O  2  S   -1.188335  -0.014419   0.000000   0.000000   0.006520
   22  O  2  S    1.759219   0.021407   0.000000   0.000000  -0.014294
   23  O  2  X   -0.080835  -0.001273   0.000000   0.000000  -0.000082
   24  O  2  Y    0.000000   0.000000  -0.004850   0.005174   0.000000
   25  O  2  Z    0.091597   0.007827   0.000000   0.000000   0.001951
   26  O  2  X    0.493641   0.003247   0.000000   0.000000  -0.006788
   27  O  2  Y    0.000000   0.000000   0.007895  -0.008121   0.000000
   28  O  2  Z   -0.323986  -0.012967   0.000000   0.000000  -0.003161
   29  O  2 XX   -0.160679  -0.165196   0.000000   0.000000  -0.058905
   30  O  2 YY    0.093156   0.593552   0.000000   0.000000   0.606706
   31  O  2 ZZ    0.067524  -0.428356   0.000000   0.000000  -0.547802
   32  O  2 XY    0.000000   0.000000   0.360020   0.117172   0.000000
   33  O  2 XZ    0.107245  -0.353211   0.000000   0.000000  -0.228297
   34  O  2 YZ    0.000000   0.000000   0.608674   0.697422   0.000000
   35  O  3  S   -0.009323  -0.000471   0.000000   0.000000   0.000629
   36  O  3  S    1.188335   0.014419   0.000000   0.000000   0.006520
   37  O  3  S   -1.759219  -0.021407   0.000000   0.000000  -0.014294
   38  O  3  X   -0.080835  -0.001273   0.000000   0.000000   0.000082
   39  O  3  Y    0.000000   0.000000   0.004850   0.005174   0.000000
   40  O  3  Z   -0.091597  -0.007827   0.000000   0.000000   0.001951
   41  O  3  X    0.493641   0.003247   0.000000   0.000000   0.006788
   42  O  3  Y    0.000000   0.000000  -0.007895  -0.008121   0.000000
   43  O  3  Z    0.323986   0.012967   0.000000   0.000000  -0.003161
   44  O  3 XX    0.160679   0.165196   0.000000   0.000000  -0.058905
   45  O  3 YY   -0.093156  -0.593552   0.000000   0.000000   0.606706
   46  O  3 ZZ   -0.067524   0.428356   0.000000   0.000000  -0.547802
   47  O  3 XY    0.000000   0.000000   0.360020  -0.117172   0.000000
   48  O  3 XZ    0.107245  -0.353211   0.000000   0.000000   0.228297
   49  O  3 YZ    0.000000   0.000000  -0.608674   0.697422   0.000000

                     41         42         43         44         45
                    2.0903     2.1095     2.1213     2.1381     2.3854
                     B2         B1         A1         A2         B1  
    1  S  1  S    0.000000   0.000000  -0.000965   0.000000   0.000000
    2  S  1  S    0.000000   0.000000   0.031180   0.000000   0.000000
    3  S  1  S    0.000000   0.000000   0.027857   0.000000   0.000000
    4  S  1  S    0.000000   0.000000  -0.192839   0.000000   0.000000
    5  S  1  X    0.000000   0.031387   0.000000   0.000000  -0.132872
    6  S  1  Y    0.013167   0.000000   0.000000   0.000000   0.000000
    7  S  1  Z    0.000000   0.000000   0.020920   0.000000   0.000000
    8  S  1  X    0.000000  -0.107139   0.000000   0.000000   0.495821
    9  S  1  Y   -0.011056   0.000000   0.000000   0.000000   0.000000
   10  S  1  Z    0.000000   0.000000  -0.041522   0.000000   0.000000
   11  S  1  X    0.000000  -0.110861   0.000000   0.000000   0.381733
   12  S  1  Y   -0.143698   0.000000   0.000000   0.000000   0.000000
   13  S  1  Z    0.000000   0.000000  -0.187199   0.000000   0.000000
   14  S  1 XX    0.000000   0.000000   0.048170   0.000000   0.000000
   15  S  1 YY    0.000000   0.000000   0.067706   0.000000   0.000000
   16  S  1 ZZ    0.000000   0.000000  -0.115876   0.000000   0.000000
   17  S  1 XY    0.000000   0.000000   0.000000   0.253047   0.000000
   18  S  1 XZ    0.000000   0.130036   0.000000   0.000000   0.395356
   19  S  1 YZ   -0.102244   0.000000   0.000000   0.000000   0.000000
   20  O  2  S    0.000000  -0.000164   0.000649   0.000000  -0.007407
   21  O  2  S    0.000000   0.100021  -0.120905   0.000000  -0.438064
   22  O  2  S    0.000000  -0.151030   0.180163   0.000000   0.701942
   23  O  2  X    0.000000   0.024432  -0.050661   0.000000  -0.089265
   24  O  2  Y   -0.040254   0.000000   0.000000  -0.032796   0.000000
   25  O  2  Z    0.000000  -0.038960  -0.032665   0.000000   0.031885
   26  O  2  X    0.000000  -0.061383   0.128920   0.000000   0.393712
   27  O  2  Y    0.076237   0.000000   0.000000   0.061595   0.000000
   28  O  2  Z    0.000000   0.072913   0.057494   0.000000  -0.142025
   29  O  2 XX    0.000000   0.249487   0.486824   0.000000   0.650470
   30  O  2 YY    0.000000   0.212856  -0.065098   0.000000  -0.323656
   31  O  2 ZZ    0.000000  -0.462343  -0.421726   0.000000  -0.326814
   32  O  2 XY    0.701239   0.000000   0.000000   0.611420   0.000000
   33  O  2 XZ    0.000000   0.535635   0.474623   0.000000  -0.296458
   34  O  2 YZ   -0.119331   0.000000   0.000000  -0.360598   0.000000
   35  O  3  S    0.000000   0.000164   0.000649   0.000000   0.007407
   36  O  3  S    0.000000  -0.100021  -0.120905   0.000000   0.438064
   37  O  3  S    0.000000   0.151030   0.180163   0.000000  -0.701942
   38  O  3  X    0.000000   0.024432   0.050661   0.000000  -0.089265
   39  O  3  Y   -0.040254   0.000000   0.000000   0.032796   0.000000
   40  O  3  Z    0.000000   0.038960  -0.032665   0.000000  -0.031885
   41  O  3  X    0.000000  -0.061383  -0.128920   0.000000   0.393712
   42  O  3  Y    0.076237   0.000000   0.000000  -0.061595   0.000000
   43  O  3  Z    0.000000  -0.072913   0.057494   0.000000   0.142025
   44  O  3 XX    0.000000  -0.249487   0.486824   0.000000  -0.650470
   45  O  3 YY    0.000000  -0.212856  -0.065098   0.000000   0.323656
   46  O  3 ZZ    0.000000   0.462343  -0.421726   0.000000   0.326814
   47  O  3 XY   -0.701239   0.000000   0.000000   0.611420   0.000000
   48  O  3 XZ    0.000000   0.535635  -0.474623   0.000000  -0.296458
   49  O  3 YZ   -0.119331   0.000000   0.000000   0.360598   0.000000

                     46
                    2.4694
                     A1  
    1  S  1  S    0.007003
    2  S  1  S   -0.152454
    3  S  1  S   -0.112625
    4  S  1  S    0.922561
    5  S  1  X    0.000000
    6  S  1  Y    0.000000
    7  S  1  Z   -0.050001
    8  S  1  X    0.000000
    9  S  1  Y    0.000000
   10  S  1  Z    0.193059
   11  S  1  X    0.000000
   12  S  1  Y    0.000000
   13  S  1  Z    0.148290
   14  S  1 XX    0.604191
   15  S  1 YY   -0.353054
   16  S  1 ZZ   -0.251137
   17  S  1 XY    0.000000
   18  S  1 XZ    0.000000
   19  S  1 YZ    0.000000
   20  O  2  S    0.011011
   21  O  2  S    0.469372
   22  O  2  S   -0.759645
   23  O  2  X    0.086320
   24  O  2  Y    0.000000
   25  O  2  Z   -0.032257
   26  O  2  X   -0.467303
   27  O  2  Y    0.000000
   28  O  2  Z    0.171494
   29  O  2 XX   -0.519497
   30  O  2 YY    0.363692
   31  O  2 ZZ    0.155806
   32  O  2 XY    0.000000
   33  O  2 XZ    0.490643
   34  O  2 YZ    0.000000
   35  O  3  S    0.011011
   36  O  3  S    0.469372
   37  O  3  S   -0.759645
   38  O  3  X   -0.086320
   39  O  3  Y    0.000000
   40  O  3  Z   -0.032257
   41  O  3  X    0.467303
   42  O  3  Y    0.000000
   43  O  3  Z    0.171494
   44  O  3 XX   -0.519497
   45  O  3 YY    0.363692
   46  O  3 ZZ    0.155806
   47  O  3 XY    0.000000
   48  O  3 XZ   -0.490643
   49  O  3 YZ    0.000000
 ...... END OF RHF CALCULATION ......
 STEP CPU TIME =     4.18 TOTAL CPU TIME =        4.3 (    0.1 MIN)
 TOTAL WALL CLOCK TIME=        4.4 SECONDS, CPU UTILIZATION IS 100.00%

     ---------------------------------------------------------------------
     PROPERTIES FOR THE PBE      DFT FUNCTIONAL (RHF  TYPE) DENSITY MATRIX
     ---------------------------------------------------------------------

          -----------------
          ENERGY COMPONENTS
          -----------------

         WAVEFUNCTION NORMALIZATION =       1.0000000000

                ONE ELECTRON ENERGY =    -925.0565246765
                TWO ELECTRON ENERGY =     291.6319526814
           NUCLEAR REPULSION ENERGY =      85.2721184046
                                      ------------------
                       TOTAL ENERGY =    -548.1524535904

 ELECTRON-ELECTRON POTENTIAL ENERGY =     291.6319526814
  NUCLEUS-ELECTRON POTENTIAL ENERGY =   -1471.7487157222
   NUCLEUS-NUCLEUS POTENTIAL ENERGY =      85.2721184046
                                      ------------------
             TOTAL POTENTIAL ENERGY =   -1094.8446446362
               TOTAL KINETIC ENERGY =     546.6921910457
                 VIRIAL RATIO (V/T) =       2.0026710873

          ---------------------------------------
          MULLIKEN AND LOWDIN POPULATION ANALYSES
          ---------------------------------------

     ATOMIC MULLIKEN POPULATION IN EACH MOLECULAR ORBITAL

                      1          2          3          4          5

                  2.000000   2.000000   2.000000   2.000000   2.000000

    1             2.000000   0.000948   0.000473   2.000138   1.999974
    2             0.000000   0.999526   0.999763  -0.000069   0.000013
    3             0.000000   0.999526   0.999763  -0.000069   0.000013

                      6          7          8          9         10

                  2.000000   2.000000   2.000000   2.000000   2.000000

    1             2.000003   1.999984   0.518194   0.160993   1.291079
    2            -0.000001   0.000008   0.740903   0.919504   0.354461
    3            -0.000001   0.000008   0.740903   0.919504   0.354461

                     11         12         13         14         15

                  2.000000   2.000000   2.000000   2.000000   2.000000

    1             0.589340   1.165789   1.178942   0.035014   0.062625
    2             0.705330   0.417105   0.410529   0.982493   0.968688
    3             0.705330   0.417105   0.410529   0.982493   0.968688

                     16

                  2.000000

    1             0.241131
    2             0.879435
    3             0.879435

               ----- POPULATIONS IN EACH AO -----
                             MULLIKEN      LOWDIN
              1  S  1  S      2.00021     1.99608
              2  S  1  S      2.01062     1.97524
              3  S  1  S      1.02244     0.65432
              4  S  1  S      0.90053     0.56365
              5  S  1  X      1.99617     1.95213
              6  S  1  Y      1.99629     1.95587
              7  S  1  Z      1.99659     1.95825
              8  S  1  X      0.62392     0.57339
              9  S  1  Y      0.67553     0.65630
             10  S  1  Z      0.73857     0.71622
             11  S  1  X      0.14781     0.31236
             12  S  1  Y      0.50455     0.55001
             13  S  1  Z      0.45314     0.52270
             14  S  1 XX      0.02709     0.25527
             15  S  1 YY      0.06760     0.27428
             16  S  1 ZZ      0.03501     0.26940
             17  S  1 XY      0.04597     0.04054
             18  S  1 XZ      0.00258     0.05778
             19  S  1 YZ      0.00000     0.00244
             20  O  2  S      1.99805     1.98133
             21  O  2  S      0.85857     0.67379
             22  O  2  S      1.11239     0.61106
             23  O  2  X      0.75917     0.72147
             24  O  2  Y      0.83192     0.80121
             25  O  2  Z      1.08180     1.05089
             26  O  2  X      0.48170     0.55767
             27  O  2  Y      0.55892     0.59356
             28  O  2  Z      0.68607     0.72441
             29  O  2 XX      0.00126     0.21421
             30  O  2 YY      0.00320     0.21356
             31  O  2 ZZ      0.00193     0.20773
             32  O  2 XY      0.00247     0.00234
             33  O  2 XZ      0.00025     0.00336
             34  O  2 YZ      0.00000     0.00031
             35  O  3  S      1.99805     1.98133
             36  O  3  S      0.85857     0.67379
             37  O  3  S      1.11239     0.61106
             38  O  3  X      0.75917     0.72147
             39  O  3  Y      0.83192     0.80121
             40  O  3  Z      1.08180     1.05089
             41  O  3  X      0.48170     0.55767
             42  O  3  Y      0.55892     0.59356
             43  O  3  Z      0.68607     0.72441
             44  O  3 XX      0.00126     0.21421
             45  O  3 YY      0.00320     0.21356
             46  O  3 ZZ      0.00193     0.20773
             47  O  3 XY      0.00247     0.00234
             48  O  3 XZ      0.00025     0.00336
             49  O  3 YZ      0.00000     0.00031

          ----- MULLIKEN ATOMIC OVERLAP POPULATIONS -----
          (OFF-DIAGONAL ELEMENTS NEED TO BE MULTIPLIED BY 2)

             1           2           3

    1   14.8419019
    2    0.2013622   8.1794620
    3    0.2013622  -0.0031374   8.1794620

          TOTAL MULLIKEN AND LOWDIN ATOMIC POPULATIONS
       ATOM         MULL.POP.    CHARGE          LOW.POP.     CHARGE
    1 S            15.244626    0.755374        15.286202    0.713798
    2 O             8.377687   -0.377687         8.356899   -0.356899
    3 O             8.377687   -0.377687         8.356899   -0.356899

          MULLIKEN SPHERICAL HARMONIC POPULATIONS
       ATOM           S       P       D      F      G      H      I    TOTAL
    1 S             5.93    9.13    0.18   0.00   0.00   0.00   0.00   15.24
    2 O             3.97    4.40    0.01   0.00   0.00   0.00   0.00    8.38
    3 O             3.97    4.40    0.01   0.00   0.00   0.00   0.00    8.38

          -------------------------------
          BOND ORDER AND VALENCE ANALYSIS     BOND ORDER THRESHOLD=0.050
          -------------------------------

                   BOND                       BOND                       BOND
  ATOM PAIR DIST  ORDER      ATOM PAIR DIST  ORDER      ATOM PAIR DIST  ORDER
    1   2  1.800  1.583        1   3  1.800  1.583        2   3  3.383  0.570

                       TOTAL       BONDED        FREE
      ATOM            VALENCE     VALENCE     VALENCE
    1 S                 3.166       3.166       0.000
    2 O                 2.153       2.153       0.000
    3 O                 2.153       2.153       0.000

          ---------------------
          ELECTROSTATIC MOMENTS
          ---------------------

 POINT   1           X           Y           Z (BOHR)    CHARGE
                 0.000000    0.000000    0.000000        0.00 (A.U.)
         DX          DY          DZ         /D/  (DEBYE)
     0.000000    0.000000   -1.368657    1.368657
 ...... END OF PROPERTY EVALUATION ......
 STEP CPU TIME =     0.00 TOTAL CPU TIME =        4.3 (    0.1 MIN)
 TOTAL WALL CLOCK TIME=        4.4 SECONDS, CPU UTILIZATION IS  99.77%
               580000  WORDS OF DYNAMIC MEMORY USED
 EXECUTION OF GAMESS TERMINATED NORMALLY Thu Feb 26 00:20:52 2015
 DDI: 263624 bytes (0.3 MB / 0 MWords) used by master data server.

 ----------------------------------------
 CPU timing information for all processes
 ========================================
 0: 4.336 + 0.26 = 4.363
 ----------------------------------------
 ddikick.x: exited gracefully.
----- accounting info -----
Files used on the master node dftfe.crc.nd.edu were:
-rw-r--r-- 1 pmehta1 campus   37475 Feb 26 00:20 /tmp/gamess.dat
-rw-r--r-- 1 pmehta1 campus     142 Feb 26 00:20 /tmp/gamess.F05
-rw-r--r-- 1 pmehta1 campus 1980264 Feb 26 00:20 /tmp/gamess.F08
-rw-r--r-- 1 pmehta1 campus 1220440 Feb 26 00:20 /tmp/gamess.F10
Thu Feb 26 00:20:55 EST 2015
0.243u 0.185s 0:07.78 5.3%	0+0k 0+112io 0pf+0w
