----- GAMESS execution script 'rungms' -----
This job is running on host dftfe.crc.nd.edu
under operating system Linux at Thu Feb 26 00:11:25 EST 2015
Available scratch disk space (Kbyte units) at beginning of the job is
Filesystem     1K-blocks     Used Available Use% Mounted on
/dev/sda2      147771864 22809188 117456244  17% /
GAMESS temporary binary files will be written to /tmp
GAMESS supplementary output files will be written to /tmp
Copying input file gamess.inp to your run's scratch directory...

 Distributed Data Interface kickoff program.
 Initiating 1 compute processes on 1 nodes to run the following command:
 /opt/crc/gamess/2012R1/gamess/gamess.00.x gamess 

          ******************************************************
          *         GAMESS VERSION =  1 MAY 2012 (R1)          *
          *             FROM IOWA STATE UNIVERSITY             *
          * M.W.SCHMIDT, K.K.BALDRIDGE, J.A.BOATZ, S.T.ELBERT, *
          *   M.S.GORDON, J.H.JENSEN, S.KOSEKI, N.MATSUNAGA,   *
          *          K.A.NGUYEN, S.J.SU, T.L.WINDUS,           *
          *       TOGETHER WITH M.DUPUIS, J.A.MONTGOMERY       *
          *         J.COMPUT.CHEM.  14, 1347-1363(1993)        *
          **************** 64 BIT LINUX VERSION ****************

  SINCE 1993, STUDENTS AND POSTDOCS WORKING AT IOWA STATE UNIVERSITY
  AND ALSO IN THEIR VARIOUS JOBS AFTER LEAVING ISU HAVE MADE IMPORTANT
  CONTRIBUTIONS TO THE CODE:
     IVANA ADAMOVIC, CHRISTINE AIKENS, YURI ALEXEEV, POOJA ARORA,
     ANDREY ASADCHEV, ROB BELL, PRADIPTA BANDYOPADHYAY, JONATHAN BENTZ,
     BRETT BODE, GALINA CHABAN, WEI CHEN, CHEOL HO CHOI, PAUL DAY,
     ALBERT DEFUSCO, TIM DUDLEY, DMITRI FEDOROV, GRAHAM FLETCHER,
     MARK FREITAG, KURT GLAESEMANN, DAN KEMP, GRANT MERRILL,
     NORIYUKI MINEZAWA, JONATHAN MULLIN, TAKESHI NAGATA,
     SEAN NEDD, HEATHER NETZLOFF, BOSILJKA NJEGIC, RYAN OLSON, MIKE PAK,
     JIM SHOEMAKER, LYUDMILA SLIPCHENKO, SAROM SOK, JIE SONG,
     TETSUYA TAKETSUGU, SIMON WEBB, SOOHAENG YOO, FEDERICO ZAHARIEV

  ADDITIONAL CODE HAS BEEN PROVIDED BY COLLABORATORS IN OTHER GROUPS:
     IOWA STATE UNIVERSITY:
          JOE IVANIC, LAIMUTIS BYTAUTAS, KLAUS RUEDENBERG
     UNIVERSITY OF TOKYO: KIMIHIKO HIRAO, TAKAHITO NAKAJIMA,
          TAKAO TSUNEDA, MUNEAKI KAMIYA, SUSUMU YANAGISAWA,
          KIYOSHI YAGI, MAHITO CHIBA, SEIKEN TOKURA, NAOAKI KAWAKAMI
     UNIVERSITY OF AARHUS: FRANK JENSEN
     UNIVERSITY OF IOWA: VISVALDAS KAIRYS, HUI LI
     NATIONAL INST. OF STANDARDS AND TECHNOLOGY: WALT STEVENS, DAVID GARMER
     UNIVERSITY OF PISA: BENEDETTA MENNUCCI, JACOPO TOMASI
     UNIVERSITY OF MEMPHIS: HENRY KURTZ, PRAKASHAN KORAMBATH
     UNIVERSITY OF ALBERTA: TOBY ZENG, MARIUSZ KLOBUKOWSKI
     UNIVERSITY OF NEW ENGLAND: MARK SPACKMAN
     MIE UNIVERSITY: HIROAKI UMEDA
     MICHIGAN STATE UNIVERSITY:
          KAROL KOWALSKI, MARTA WLOCH, JEFFREY GOUR, JESSE LUTZ, PIOTR PIECUCH
     UNIVERSITY OF SILESIA: MONIKA MUSIAL, STANISLAW KUCHARSKI
     FACULTES UNIVERSITAIRES NOTRE-DAME DE LA PAIX:
          OLIVIER QUINET, BENOIT CHAMPAGNE
     UNIVERSITY OF CALIFORNIA - SANTA BARBARA: BERNARD KIRTMAN
     INSTITUTE FOR MOLECULAR SCIENCE:
          KAZUYA ISHIMURA, MICHIO KATOUDA, AND SHIGERU NAGASE
     UNIVERSITY OF NOTRE DAME: DAN CHIPMAN
     KYUSHU UNIVERSITY:
          HARUYUKI NAKANO,
          FENG LONG GU, JACEK KORCHOWIEC, MARCIN MAKOWSKI, AND YURIKO AOKI,
          HIROTOSHI MORI AND EISAKU MIYOSHI
     PENNSYLVANIA STATE UNIVERSITY:
          TZVETELIN IORDANOV, CHET SWALINA, JONATHAN SKONE,
          SHARON HAMMES-SCHIFFER
     WASEDA UNIVERSITY:
          MASATO KOBAYASHI, TOMOKO AKAMA, TSUGUKI TOUMA,
          TAKESHI YOSHIKAWA, YASUHIRO IKABATA, HIROMI NAKAI
     UNIVERSITY OF NEBRASKA:
          PEIFENG SU, DEJUN SI, NANDUN THELLAMUREGE, YALI WANG, HUI LI
     UNIVERSITY OF ZURICH:
          ROBERTO PEVERATI, KIM BALDRIDGE
     N. COPERNICUS UNIVERSITY AND JACKSON STATE UNIVERSITY:
          MARIA BARYSZ

 EXECUTION OF GAMESS BEGUN Thu Feb 26 00:11:25 2015

            ECHO OF THE FIRST FEW INPUT CARDS -
 INPUT CARD> $BASIS GBASIS=PC1 $END                                                         
 INPUT CARD> $CONTRL COORD=ZMT ISPHER=1 RUNTYP=ENERGY DFTTYP=PBE $END                       
 INPUT CARD>                                                                                
 INPUT CARD> $DATA                                                                          
 INPUT CARD>Title                                                                           
 INPUT CARD>Cnv 2                                                                           
 INPUT CARD>                                                                                
 INPUT CARD>S                                                                               
 INPUT CARD>O 1 1.10                                                                        
 INPUT CARD>O 1 1.10 2 110.0                                                                
 INPUT CARD> $END                                                                           
    1000000 WORDS OF MEMORY AVAILABLE

     BASIS OPTIONS
     -------------
     GBASIS=PC1          IGAUSS=       0      POLAR=NONE    
     NDFUNC=       0     NFFUNC=       0     DIFFSP=       F
     NPFUNC=       0      DIFFS=       F     BASNAM=        


     RUN TITLE
     ---------
 Title                                                                           

 THE POINT GROUP OF THE MOLECULE IS CNV     
 THE ORDER OF THE PRINCIPAL AXIS IS     2

 YOUR FULLY SUBSTITUTED Z-MATRIX IS
 S   
 O      1   1.1000000
 O      1   1.1000000  2  110.0000

 THE MOMENTS OF INERTIA ARE (AMU-ANGSTROM**2)
 IXX=     6.365   IYY=    25.973   IZZ=    32.339

 ATOM      ATOMIC                      COORDINATES (BOHR)
           CHARGE         X                   Y                   Z
 S          16.0     0.0000000000        0.0000000000       -0.5963116997
 O           8.0    -1.7027701966        0.0000000000        0.5959808278
 O           8.0     1.7027701966        0.0000000000        0.5959808278

          INTERNUCLEAR DISTANCES (ANGS.)
          ------------------------------

                1 S          2 O          3 O     

   1 S       0.0000000    1.1000000 *  1.1000000 *
   2 O       1.1000000 *  0.0000000    1.8021345 *
   3 O       1.1000000 *  1.8021345 *  0.0000000  

  * ... LESS THAN  3.000


     ATOMIC BASIS SET
     ----------------
 THE CONTRACTED PRIMITIVE FUNCTIONS HAVE BEEN UNNORMALIZED
 THE CONTRACTED BASIS FUNCTIONS ARE NOW NORMALIZED TO UNITY

  SHELL TYPE  PRIMITIVE        EXPONENT          CONTRACTION COEFFICIENT(S)

 S         

      1   S       1         55510.0000000    0.000587229760
      1   S       2          8326.7000000    0.004532413947
      1   S       3          1895.6000000    0.023265261648
      1   S       4           536.7700000    0.089696133027
      1   S       5           174.6700000    0.254098332277
      1   S       6            62.5780000    0.438665087637
      1   S       7            23.5730000    0.314547135094
      1   S       8             5.8908000    0.032727897102

      2   S       9          8326.7000000   -0.000019755715
      2   S      10          1895.6000000   -0.000043822381
      2   S      11           536.7700000   -0.001730264906
      2   S      12           174.6700000   -0.009381263460
      2   S      13            62.5780000   -0.064050766303
      2   S      14            23.5730000   -0.082478179196
      2   S      15             5.8908000    0.478342956889
      2   S      16             2.1852000    0.626896670208

      3   S      17          1895.6000000    0.000016227260
      3   S      18           536.7700000    0.000191135619
      3   S      19           174.6700000    0.001952069674
      3   S      20            62.5780000    0.010578701087
      3   S      21            23.5730000    0.022164934551
      3   S      22             5.8908000   -0.184968323118
      3   S      23             2.1852000   -0.480920750976
      3   S      24             0.4528200    1.243822243872

      4   S      25             0.1620200    1.000000000000

      5   P      26           395.4500000    0.004642761329
      5   P      27            92.8340000    0.036023396489
      5   P      28            29.2660000    0.149058869978
      5   P      29            10.5950000    0.360033266263
      5   P      30             4.0272000    0.455756476221
      5   P      31             1.5484000    0.206167664178

      6   P      32            92.8340000    0.000169901442
      6   P      33            29.2660000   -0.002541839934
      6   P      34            10.5950000   -0.007867614595
      6   P      35             4.0272000   -0.037231009184
      6   P      36             1.5484000    0.161417246830
      6   P      37             0.4613400    0.902230419976

      7   P      38             0.1313100    1.000000000000

      8   D      39             0.5500000    1.000000000000

 O         

     15   S      40          2306.7000000    0.005424388755
     15   S      41           347.1500000    0.040474749465
     15   S      42            78.8900000    0.180219634554
     15   S      43            21.8760000    0.462370311787
     15   S      44             6.6646000    0.454888396263

     16   S      45           347.1500000   -0.000655003786
     16   S      46            78.8900000   -0.005362052952
     16   S      47            21.8760000   -0.074902158894
     16   S      48             6.6646000   -0.181442579655
     16   S      49             1.0669000    1.102006874042

     17   S      50             0.3070000    1.000000000000

     18   P      51            17.0220000    0.068979967443
     18   P      52             3.6838000    0.351985516325
     18   P      53             0.9923400    0.724036547822

     19   P      54             0.2448700    1.000000000000

     20   D      55             1.0000000    1.000000000000

 TOTAL NUMBER OF BASIS SET SHELLS             =   20
 NUMBER OF CARTESIAN GAUSSIAN BASIS FUNCTIONS =   49
 NOTE: THIS RUN WILL RESTRICT THE MO VARIATION SPACE TO SPHERICAL HARMONICS.
 THE NUMBER OF ORBITALS KEPT IN THE VARIATIONAL SPACE WILL BE PRINTED LATER.
 NUMBER OF ELECTRONS                          =   32
 CHARGE OF MOLECULE                           =    0
 SPIN MULTIPLICITY                            =    1
 NUMBER OF OCCUPIED ORBITALS (ALPHA)          =   16
 NUMBER OF OCCUPIED ORBITALS (BETA )          =   16
 TOTAL NUMBER OF ATOMS                        =    3
 THE NUCLEAR REPULSION ENERGY IS      141.9468838616

     LEBEDEV GRID-BASED DFT OPTIONS
     ------------------------------
     DFTTYP=PBE     
     NRAD  =      96     NLEB  =     302
     NRAD0 =      24     NLEB0 =     110
     SWOFF =    5.00E-03 (PURE SCF -> DFT)
     SWITCH=    3.00E-04 (COARSE -> TIGHT GRID)
     THRESH=    0.00E+00 GTHRE=    1.00E+00

 GRIMME'S EMPIRICAL DISPERSION CORRECTION= F

     $CONTRL OPTIONS
     ---------------
 SCFTYP=RHF          RUNTYP=ENERGY       EXETYP=RUN     
 MPLEVL=       0     CITYP =NONE         CCTYP =NONE         VBTYP =NONE    
 DFTTYP=PBE          TDDFT =NONE    
 MULT  =       1     ICHARG=       0     NZVAR =       0     COORD =ZMT     
 PP    =NONE         RELWFN=NONE         LOCAL =NONE         NUMGRD=       F
 ISPHER=       1     NOSYM =       0     MAXIT =      30     UNITS =ANGS    
 PLTORB=       F     MOLPLT=       F     AIMPAC=       F     FRIEND=        
 NPRINT=       7     IREST =       0     GEOM  =INPUT   
 NORMF =       0     NORMP =       0     ITOL  =      20     ICUT  =       9
 INTTYP=BEST         GRDTYP=BEST         QMTTOL= 1.0E-06

     $SYSTEM OPTIONS
     ---------------
  REPLICATED MEMORY=     1000000 WORDS (ON EVERY NODE).
 DISTRIBUTED MEMDDI=           0 MILLION WORDS IN AGGREGATE,
 MEMDDI DISTRIBUTED OVER   1 PROCESSORS IS           0 WORDS/PROCESSOR.
 TOTAL MEMORY REQUESTED ON EACH PROCESSOR=     1000000 WORDS.
 TIMLIM=      525600.00 MINUTES, OR     365.0 DAYS.
 PARALL= F  BALTYP=  DLB     KDIAG=    0  COREFL= F
 MXSEQ2=     300 MXSEQ3=     150

          ----------------
          PROPERTIES INPUT
          ----------------

     MOMENTS            FIELD           POTENTIAL          DENSITY
 IEMOM =       1   IEFLD =       0   IEPOT =       0   IEDEN =       0
 WHERE =COMASS     WHERE =NUCLEI     WHERE =NUCLEI     WHERE =NUCLEI  
 OUTPUT=BOTH       OUTPUT=BOTH       OUTPUT=BOTH       OUTPUT=BOTH    
 IEMINT=       0   IEFINT=       0                     IEDINT=       0
                                                       MORB  =       0
          EXTRAPOLATION IN EFFECT
          DIIS IN EFFECT
 ORBITAL PRINTING OPTION: NPREO=     1    49     2     1

     -------------------------------
     INTEGRAL TRANSFORMATION OPTIONS
     -------------------------------
     NWORD  =            0
     CUTOFF = 1.0E-09     MPTRAN =       0
     DIRTRF =       F     AOINTS =DUP     

          ----------------------
          INTEGRAL INPUT OPTIONS
          ----------------------
 NOPK  =       1 NORDER=       0 SCHWRZ=       F

   --- ENCODED Z MATRIX ---
 COORD  TYPE   I   J   K   L   M   N
    1      1    3   1
    2      1    2   1
    3      2    2   1   3

 THE DETERMINANT OF THE G MATRIX IS 10**(    -4)

 THE DETERMINANT OF THE G MATRIX IS 10**(    -4)
 * * * WARNING * * *
 YOUR B MATRIX HAS A SMALL DETERMINANT.
 THIS SUGGESTS YOU MAY HAVE BADLY CHOSEN COORDINATES.

     ------------------------------------------
     THE POINT GROUP IS CNV, NAXIS= 2, ORDER= 4
     ------------------------------------------

 -- VARIATIONAL SPACE WILL BE RESTRICTED TO PURE SPHERICAL HARMONICS ONLY --
 AFTER EXCLUDING CONTAMINANT COMBINATIONS FROM THE CARTESIAN GAUSSIAN BASIS
 SET, THE NUMBER OF SPHERICAL HARMONICS KEPT IN THE VARIATION SPACE IS   46

     DIMENSIONS OF THE SYMMETRY SUBSPACES ARE
 A1  =   19     A2  =    5     B1  =   14     B2  =    8

 ..... DONE SETTING UP THE RUN .....
 STEP CPU TIME =     0.01 TOTAL CPU TIME =        0.0 (    0.0 MIN)
 TOTAL WALL CLOCK TIME=        0.0 SECONDS, CPU UTILIZATION IS 100.00%

          ********************
          1 ELECTRON INTEGRALS
          ********************
 ...... END OF ONE-ELECTRON INTEGRALS ......
 STEP CPU TIME =     0.00 TOTAL CPU TIME =        0.0 (    0.0 MIN)
 TOTAL WALL CLOCK TIME=        0.0 SECONDS, CPU UTILIZATION IS 100.00%

          -------------
          GUESS OPTIONS
          -------------
          GUESS =HUCKEL            NORB  =       0          NORDER=       0
          MIX   =       F          PRTMO =       F          PUNMO =       F
          TOLZ  = 1.0E-08          TOLE  = 1.0E-05
          SYMDEN=       F          PURIFY=       F

 INITIAL GUESS ORBITALS GENERATED BY HUCKEL   ROUTINE.
 HUCKEL GUESS REQUIRES     21583 WORDS.

 STATISTICS FOR GENERATION OF SYMMETRY ORBITAL -Q- MATRIX
 NUMBER OF CARTESIAN ATOMIC ORBITALS=         49
 NUMBER OF SPHERICAL CONTAMINANTS DROPPED=     3
 NUMBER OF LINEARLY DEPENDENT MOS DROPPED=     0
 TOTAL NUMBER OF MOS IN VARIATION SPACE=      46

 SYMMETRIES FOR INITIAL GUESS ORBITALS FOLLOW.   BOTH SET(S).
    16 ORBITALS ARE OCCUPIED (    7 CORE ORBITALS).
     8=?A1      9=?B1     10=B2      11=?A1     12=?A1     13=?B1     14=A2  
    15=B1      16=A1      17=B2      18=B1      19=A1      20=A1      21=A1  
    22=A1      23=A1      24=A1      25=A1      26=A1  
 ...... END OF INITIAL ORBITAL SELECTION ......
 STEP CPU TIME =     0.01 TOTAL CPU TIME =        0.0 (    0.0 MIN)
 TOTAL WALL CLOCK TIME=        0.0 SECONDS, CPU UTILIZATION IS 100.00%

                    ----------------------
                    AO INTEGRAL TECHNOLOGY
                    ----------------------
     S,P,L SHELL ROTATED AXIS INTEGRALS, REPROGRAMMED BY
        KAZUYA ISHIMURA (IMS) AND JOSE SIERRA (SYNSTAR).
     S,P,D,L SHELL ROTATED AXIS INTEGRALS PROGRAMMED BY
        KAZUYA ISHIMURA (INSTITUTE FOR MOLECULAR SCIENCE).
     S,P,D,F,G SHELL TO TOTAL QUARTET ANGULAR MOMENTUM SUM 5,
        ERIC PROGRAM BY GRAHAM FLETCHER (ELORET AND NASA ADVANCED
        SUPERCOMPUTING DIVISION, AMES RESEARCH CENTER).
     S,P,D,F,G,L SHELL GENERAL RYS QUADRATURE PROGRAMMED BY
        MICHEL DUPUIS (PACIFIC NORTHWEST NATIONAL LABORATORY).

          --------------------
          2 ELECTRON INTEGRALS
          --------------------

 THE -PK- OPTION IS OFF, THE INTEGRALS ARE NOT IN SUPERMATRIX FORM.
 STORING   15000 INTEGRALS/RECORD ON DISK, USING 12 BYTES/INTEGRAL.
 TWO ELECTRON INTEGRAL EVALUATION REQUIRES   90606 WORDS OF MEMORY.
 II,JST,KST,LST =  1  1  1  1 NREC =         1 INTLOC =    1
 II,JST,KST,LST =  2  1  1  1 NREC =         1 INTLOC =    2
 II,JST,KST,LST =  3  1  1  1 NREC =         1 INTLOC =    7
 II,JST,KST,LST =  4  1  1  1 NREC =         1 INTLOC =   22
 II,JST,KST,LST =  5  1  1  1 NREC =         1 INTLOC =   56
 II,JST,KST,LST =  6  1  1  1 NREC =         1 INTLOC =  125
 II,JST,KST,LST =  7  1  1  1 NREC =         1 INTLOC =  329
 II,JST,KST,LST =  8  1  1  1 NREC =         1 INTLOC =  776
 II,JST,KST,LST =  9  1  1  1 NREC =         1 INTLOC = 2864
 II,JST,KST,LST = 10  1  1  1 NREC =         1 INTLOC = 2864
 II,JST,KST,LST = 11  1  1  1 NREC =         1 INTLOC = 2864
 II,JST,KST,LST = 12  1  1  1 NREC =         1 INTLOC = 2864
 II,JST,KST,LST = 13  1  1  1 NREC =         1 INTLOC = 2864
 II,JST,KST,LST = 14  1  1  1 NREC =         1 INTLOC = 2864
 II,JST,KST,LST = 15  1  1  1 NREC =         1 INTLOC = 2864
 II,JST,KST,LST = 16  1  1  1 NREC =         1 INTLOC = 5259
 II,JST,KST,LST = 17  1  1  1 NREC =         1 INTLOC = 8654
 II,JST,KST,LST = 18  1  1  1 NREC =         1 INTLOC =13163
 II,JST,KST,LST = 19  1  1  1 NREC =         3 INTLOC = 1919
 II,JST,KST,LST = 20  1  1  1 NREC =         5 INTLOC = 3574
 TOTAL NUMBER OF NONZERO TWO-ELECTRON INTEGRALS =              184459
         13 INTEGRAL RECORDS WERE STORED ON DISK FILE  8.
  ...... END OF TWO-ELECTRON INTEGRALS .....
 STEP CPU TIME =     0.16 TOTAL CPU TIME =        0.2 (    0.0 MIN)
 TOTAL WALL CLOCK TIME=        0.2 SECONDS, CPU UTILIZATION IS  94.74%

          --------------------------
               R-PBE SCF CALCULATION
          --------------------------

     NUCLEAR ENERGY =       141.9468838616
     MAXIT =   30     NPUNCH=    2
     EXTRAP=T  DAMP=F  SHIFT=F  RSTRCT=F  DIIS=T  DEM=F  SOSCF=F
         DENSITY MATRIX CONVERGENCE THRESHOLD=  1.00E-05
     COARSE -> FINE DFT GRID SWITCH THRESHOLD=  3.00E-04 (SWITCH IN $DFT)
                   HF -> DFT SWITCH THRESHOLD=  5.00E-03 (SWOFF IN $DFT)
     MEMORY REQUIRED FOR RHF ITERS=    183108 WORDS.

 DFT CODE IS SWITCHING FROM THE FINE GRID NRAD= 96,  NLEB=  302
                      TO THE COARSE GRID NRAD0= 24, NLEB0=  110

     EXCHANGE FUNCTIONAL   =PBE       
     CORRELATION FUNCTIONAL=PBE       
     DFT THRESHOLD         =.460E-07
     GRID CHANGE THRESHOLD =.300E-03
 FOR AN EULER-MACLAURIN QUADRATURE USING  96 RADIAL POINTS:
 SMALLEST GAUSSIAN PRIMITIVE EXPONENT=        0.1313100000 OF TYPE -P-
 ON ATOM NUMBER   1 HAS RADIAL NORMALIZATION=  1.000000
  LARGEST GAUSSIAN PRIMITIVE EXPONENT=    55510.0000000000 OF TYPE -S-
 ON ATOM NUMBER   1 HAS RADIAL NORMALIZATION=  0.999999
 DFT IS SWITCHED OFF, PERFORMING PURE SCF UNTIL SWOFF THRESHOLD IS REACHED.

 ITER EX DEM     TOTAL ENERGY        E CHANGE  DENSITY CHANGE    DIIS ERROR
   1  0  0     -545.0612129628  -545.0612129628   0.404677396   0.934635405
          * * *   INITIATING DIIS PROCEDURE   * * *
   2  1  0     -546.3597838608    -1.2985708979   0.591372357   0.151951935
   3  2  0     -546.4302496887    -0.0704658280   0.034484659   0.050981301
   4  3  0     -546.4377080490    -0.0074583602   0.058004373   0.013735492
   5  4  0     -546.4384615809    -0.0007535320   0.021491265   0.005767223
   6  5  0     -546.4385486619    -0.0000870809   0.005059954   0.001339846
   7  6  0     -546.4385566006    -0.0000079388   0.000149088   0.000110475
 CONVERGED TO SWOFF, SO DFT CALCULATION IS NOW SWITCHED ON.
 DFT CODE IS SWITCHING BACK TO THE FINE GRID
          * * *   INITIATING DIIS PROCEDURE   * * *
   8  7  0     -547.4612807449    -1.0227241442   0.108853915   0.090025039
   9  8  0     -547.4765566897    -0.0152759448   0.082467964   0.031965270
  10  9  0     -547.4761957519     0.0003609378   0.030680791   0.034296907
  11 10  0     -547.4791468490    -0.0029510971   0.008682283   0.004515641
  12 11  0     -547.4791896957    -0.0000428467   0.001070634   0.000413596
  13 12  0     -547.4791900026    -0.0000003069   0.000080347   0.000011847
  14 13  0     -547.4791900032    -0.0000000006   0.000017297   0.000002722
  15 14  0     -547.4791900032     0.0000000000   0.000000732   0.000000467

          -----------------
          DENSITY CONVERGED
          -----------------
     TIME TO FORM FOCK OPERATORS=       4.2 SECONDS (       0.3 SEC/ITER)
     TIME TO SOLVE SCF EQUATIONS=       0.0 SECONDS (       0.0 SEC/ITER)

 FINAL R-PBE ENERGY IS     -547.4791900032 AFTER  15 ITERATIONS
 DFT EXCHANGE + CORRELATION ENERGY =       -43.4091513342
 TOTAL ELECTRON NUMBER             =        32.0000382775

          ------------
          EIGENVECTORS
          ------------

                      1          2          3          4          5
                  -88.1032   -18.7189   -18.7188    -7.7986    -5.8200
                     A1         B1         A1         A1         B1  
    1  S  1  S    1.002972   0.000000  -0.000122  -0.273532   0.000000
    2  S  1  S   -0.010084   0.000000  -0.000273   1.038232   0.000000
    3  S  1  S    0.002116   0.000000  -0.002640   0.044681   0.000000
    4  S  1  S   -0.000352   0.000000   0.011172  -0.007472   0.000000
    5  S  1  X    0.000000  -0.000370   0.000000   0.000000   0.992494
    6  S  1  Y    0.000000   0.000000   0.000000   0.000000   0.000000
    7  S  1  Z    0.000031   0.000000   0.000030   0.017426   0.000000
    8  S  1  X    0.000000   0.004007   0.000000   0.000000   0.015140
    9  S  1  Y    0.000000   0.000000   0.000000   0.000000   0.000000
   10  S  1  Z    0.000316   0.000000  -0.001594   0.003852   0.000000
   11  S  1  X    0.000000  -0.004059   0.000000   0.000000   0.000058
   12  S  1  Y    0.000000   0.000000   0.000000   0.000000   0.000000
   13  S  1  Z    0.000033   0.000000   0.004586   0.000172   0.000000
   14  S  1 XX    0.000193   0.000000  -0.001330   0.001873   0.000000
   15  S  1 YY   -0.000155   0.000000   0.001319  -0.001479   0.000000
   16  S  1 ZZ   -0.000038   0.000000   0.000011  -0.000395   0.000000
   17  S  1 XY    0.000000   0.000000   0.000000   0.000000   0.000000
   18  S  1 XZ    0.000000   0.004143   0.000000   0.000000   0.004227
   19  S  1 YZ    0.000000   0.000000   0.000000   0.000000   0.000000
   20  O  2  S   -0.000008   0.703203   0.703075  -0.002346   0.004122
   21  O  2  S   -0.000084   0.028558   0.027494   0.001373  -0.003595
   22  O  2  S   -0.000402  -0.011330  -0.013589  -0.003149   0.001691
   23  O  2  X   -0.000123   0.002707   0.002223   0.002415  -0.004757
   24  O  2  Y    0.000000   0.000000   0.000000   0.000000   0.000000
   25  O  2  Z    0.000092  -0.001964  -0.001394  -0.001669   0.004317
   26  O  2  X   -0.000236  -0.001562  -0.002057  -0.002402   0.000820
   27  O  2  Y    0.000000   0.000000   0.000000   0.000000   0.000000
   28  O  2  Z    0.000214   0.001390   0.000837   0.002049  -0.000602
   29  O  2 XX    0.000005   0.000021   0.000659   0.001360  -0.001338
   30  O  2 YY    0.000016   0.000075  -0.000637  -0.001256   0.001970
   31  O  2 ZZ   -0.000021  -0.000096  -0.000022  -0.000103  -0.000632
   32  O  2 XY    0.000000   0.000000   0.000000   0.000000   0.000000
   33  O  2 XZ    0.000013  -0.000784  -0.000339  -0.002247   0.003044
   34  O  2 YZ    0.000000   0.000000   0.000000   0.000000   0.000000
   35  O  3  S   -0.000008  -0.703203   0.703075  -0.002346  -0.004122
   36  O  3  S   -0.000084  -0.028558   0.027494   0.001373   0.003595
   37  O  3  S   -0.000402   0.011330  -0.013589  -0.003149  -0.001691
   38  O  3  X    0.000123   0.002707  -0.002223  -0.002415  -0.004757
   39  O  3  Y    0.000000   0.000000   0.000000   0.000000   0.000000
   40  O  3  Z    0.000092   0.001964  -0.001394  -0.001669  -0.004317
   41  O  3  X    0.000236  -0.001562   0.002057   0.002402   0.000820
   42  O  3  Y    0.000000   0.000000   0.000000   0.000000   0.000000
   43  O  3  Z    0.000214  -0.001390   0.000837   0.002049   0.000602
   44  O  3 XX    0.000005  -0.000021   0.000659   0.001360   0.001338
   45  O  3 YY    0.000016  -0.000075  -0.000637  -0.001256  -0.001970
   46  O  3 ZZ   -0.000021   0.000096  -0.000022  -0.000103   0.000632
   47  O  3 XY    0.000000   0.000000   0.000000   0.000000   0.000000
   48  O  3 XZ   -0.000013  -0.000784   0.000339   0.002247   0.003044
   49  O  3 YZ    0.000000   0.000000   0.000000   0.000000   0.000000

                      6          7          8          9         10
                   -5.8062    -5.8046    -1.2543    -1.0674    -0.5734
                     B2         A1         A1         B1         B2  
    1  S  1  S    0.000000   0.005771   0.064469   0.000000   0.000000
    2  S  1  S    0.000000  -0.022115  -0.216877   0.000000   0.000000
    3  S  1  S    0.000000   0.001122   0.306973   0.000000   0.000000
    4  S  1  S    0.000000   0.002080   0.068993   0.000000   0.000000
    5  S  1  X    0.000000   0.000000   0.000000  -0.230784   0.000000
    6  S  1  Y    0.995669   0.000000   0.000000   0.000000  -0.213443
    7  S  1  Z    0.000000   0.994173  -0.127280   0.000000   0.000000
    8  S  1  X    0.000000   0.000000   0.000000   0.345127   0.000000
    9  S  1  Y    0.012256   0.000000   0.000000   0.000000   0.453363
   10  S  1  Z    0.000000   0.013128   0.168979   0.000000   0.000000
   11  S  1  X    0.000000   0.000000   0.000000   0.016487   0.000000
   12  S  1  Y   -0.000822   0.000000   0.000000   0.000000   0.119373
   13  S  1  Z    0.000000   0.000087  -0.009328   0.000000   0.000000
   14  S  1 XX    0.000000  -0.000794   0.036385   0.000000   0.000000
   15  S  1 YY    0.000000  -0.001569  -0.043288   0.000000   0.000000
   16  S  1 ZZ    0.000000   0.002364   0.006903   0.000000   0.000000
   17  S  1 XY    0.000000   0.000000   0.000000   0.000000   0.000000
   18  S  1 XZ    0.000000   0.000000   0.000000   0.116748   0.000000
   19  S  1 YZ    0.001617   0.000000   0.000000   0.000000   0.089931
   20  O  2  S    0.000000  -0.002705  -0.130171   0.155005   0.000000
   21  O  2  S    0.000000   0.003362   0.236362  -0.271607   0.000000
   22  O  2  S    0.000000  -0.001451   0.197850  -0.254077   0.000000
   23  O  2  X    0.000000   0.004296   0.150806  -0.118692   0.000000
   24  O  2  Y    0.001139   0.000000   0.000000   0.000000   0.337395
   25  O  2  Z    0.000000  -0.002089  -0.083569   0.118562   0.000000
   26  O  2  X    0.000000  -0.001091   0.026080  -0.016019   0.000000
   27  O  2  Y   -0.000545   0.000000   0.000000   0.000000   0.156016
   28  O  2  Z    0.000000  -0.000200  -0.014186   0.018533   0.000000
   29  O  2 XX    0.000000   0.001425   0.014354  -0.012158   0.000000
   30  O  2 YY    0.000000  -0.000994  -0.011616   0.015735   0.000000
   31  O  2 ZZ    0.000000  -0.000431  -0.002738  -0.003577   0.000000
   32  O  2 XY    0.000628   0.000000   0.000000   0.000000   0.027145
   33  O  2 XZ    0.000000  -0.001769  -0.022248   0.026821   0.000000
   34  O  2 YZ   -0.000598   0.000000   0.000000   0.000000  -0.018423
   35  O  3  S    0.000000  -0.002705  -0.130171  -0.155005   0.000000
   36  O  3  S    0.000000   0.003362   0.236362   0.271607   0.000000
   37  O  3  S    0.000000  -0.001451   0.197850   0.254077   0.000000
   38  O  3  X    0.000000  -0.004296  -0.150806  -0.118692   0.000000
   39  O  3  Y    0.001139   0.000000   0.000000   0.000000   0.337395
   40  O  3  Z    0.000000  -0.002089  -0.083569  -0.118562   0.000000
   41  O  3  X    0.000000   0.001091  -0.026080  -0.016019   0.000000
   42  O  3  Y   -0.000545   0.000000   0.000000   0.000000   0.156016
   43  O  3  Z    0.000000  -0.000200  -0.014186  -0.018533   0.000000
   44  O  3 XX    0.000000   0.001425   0.014354   0.012158   0.000000
   45  O  3 YY    0.000000  -0.000994  -0.011616  -0.015735   0.000000
   46  O  3 ZZ    0.000000  -0.000431  -0.002738   0.003577   0.000000
   47  O  3 XY   -0.000628   0.000000   0.000000   0.000000  -0.027145
   48  O  3 XZ    0.000000   0.001769   0.022248   0.026821   0.000000
   49  O  3 YZ   -0.000598   0.000000   0.000000   0.000000  -0.018423

                     11         12         13         14         15
                   -0.5674    -0.4715    -0.4242    -0.3843    -0.3117
                     A1         A1         B1         A2         B1  
    1  S  1  S   -0.035622   0.039483   0.000000   0.000000   0.000000
    2  S  1  S    0.107776  -0.102778   0.000000   0.000000   0.000000
    3  S  1  S   -0.212780   0.253933   0.000000   0.000000   0.000000
    4  S  1  S   -0.245549   0.002037   0.000000   0.000000   0.000000
    5  S  1  X    0.000000   0.000000  -0.164701   0.000000   0.012154
    6  S  1  Y    0.000000   0.000000   0.000000   0.000000   0.000000
    7  S  1  Z   -0.170932  -0.061869   0.000000   0.000000   0.000000
    8  S  1  X    0.000000   0.000000   0.311396   0.000000   0.013265
    9  S  1  Y    0.000000   0.000000   0.000000   0.000000   0.000000
   10  S  1  Z    0.363660   0.106137   0.000000   0.000000   0.000000
   11  S  1  X    0.000000   0.000000  -0.014741   0.000000   0.122383
   12  S  1  Y    0.000000   0.000000   0.000000   0.000000   0.000000
   13  S  1  Z    0.106131  -0.061917   0.000000   0.000000   0.000000
   14  S  1 XX   -0.108428  -0.060445   0.000000   0.000000   0.000000
   15  S  1 YY   -0.016731   0.010645   0.000000   0.000000   0.000000
   16  S  1 ZZ    0.125159   0.049799   0.000000   0.000000   0.000000
   17  S  1 XY    0.000000   0.000000   0.000000  -0.190864   0.000000
   18  S  1 XZ    0.000000   0.000000   0.014785   0.000000  -0.168713
   19  S  1 YZ    0.000000   0.000000   0.000000   0.000000   0.000000
   20  O  2  S   -0.022078   0.090080  -0.066956   0.000000  -0.014691
   21  O  2  S    0.041092  -0.182774   0.140997   0.000000   0.017240
   22  O  2  S    0.076855  -0.324130   0.292714   0.000000   0.047811
   23  O  2  X    0.142554   0.347542  -0.223411   0.000000   0.433619
   24  O  2  Y    0.000000   0.000000   0.000000   0.465457   0.000000
   25  O  2  Z    0.280044  -0.083363   0.346775   0.000000   0.239849
   26  O  2  X    0.064460   0.184745  -0.107197   0.000000   0.262378
   27  O  2  Y    0.000000   0.000000   0.000000   0.292562   0.000000
   28  O  2  Z    0.123291  -0.043634   0.187663   0.000000   0.179611
   29  O  2 XX    0.017782   0.019785  -0.002721   0.000000   0.040054
   30  O  2 YY    0.000158  -0.012751   0.016627   0.000000  -0.009527
   31  O  2 ZZ   -0.017940  -0.007034  -0.013905   0.000000  -0.030527
   32  O  2 XY    0.000000   0.000000   0.000000   0.026949   0.000000
   33  O  2 XZ    0.012676  -0.014604   0.027173   0.000000  -0.012019
   34  O  2 YZ    0.000000   0.000000   0.000000  -0.019814   0.000000
   35  O  3  S   -0.022078   0.090080   0.066956   0.000000   0.014691
   36  O  3  S    0.041092  -0.182774  -0.140997   0.000000  -0.017240
   37  O  3  S    0.076855  -0.324130  -0.292714   0.000000  -0.047811
   38  O  3  X   -0.142554  -0.347542  -0.223411   0.000000   0.433619
   39  O  3  Y    0.000000   0.000000   0.000000  -0.465457   0.000000
   40  O  3  Z    0.280044  -0.083363  -0.346775   0.000000  -0.239849
   41  O  3  X   -0.064460  -0.184745  -0.107197   0.000000   0.262378
   42  O  3  Y    0.000000   0.000000   0.000000  -0.292562   0.000000
   43  O  3  Z    0.123291  -0.043634  -0.187663   0.000000  -0.179611
   44  O  3 XX    0.017782   0.019785   0.002721   0.000000  -0.040054
   45  O  3 YY    0.000158  -0.012751  -0.016627   0.000000   0.009527
   46  O  3 ZZ   -0.017940  -0.007034   0.013905   0.000000   0.030527
   47  O  3 XY    0.000000   0.000000   0.000000   0.026949   0.000000
   48  O  3 XZ   -0.012676   0.014604   0.027173   0.000000  -0.012019
   49  O  3 YZ    0.000000   0.000000   0.000000   0.019814   0.000000

                     16         17         18         19         20
                   -0.2674    -0.0415     0.1376     0.1432     0.3387
                     A1         B2         A1         B1         B2  
    1  S  1  S    0.021731   0.000000   0.002827   0.000000   0.000000
    2  S  1  S   -0.089766   0.000000  -0.103512   0.000000   0.000000
    3  S  1  S    0.119241   0.000000  -0.088764   0.000000   0.000000
    4  S  1  S    0.853013   0.000000   1.826337   0.000000   0.000000
    5  S  1  X    0.000000   0.000000   0.000000  -0.060487   0.000000
    6  S  1  Y    0.000000  -0.179093   0.000000   0.000000  -0.305630
    7  S  1  Z    0.170833   0.000000  -0.027630   0.000000   0.000000
    8  S  1  X    0.000000   0.000000   0.000000   0.200378   0.000000
    9  S  1  Y    0.000000   0.484056   0.000000   0.000000   1.143188
   10  S  1  Z   -0.345544   0.000000   0.155976   0.000000   0.000000
   11  S  1  X    0.000000   0.000000   0.000000   1.609857   0.000000
   12  S  1  Y    0.000000   0.868495   0.000000   0.000000  -1.094186
   13  S  1  Z   -0.184467   0.000000   1.490549   0.000000   0.000000
   14  S  1 XX   -0.182237   0.000000  -0.086509   0.000000   0.000000
   15  S  1 YY    0.077883   0.000000   0.273033   0.000000   0.000000
   16  S  1 ZZ    0.104355   0.000000  -0.186524   0.000000   0.000000
   17  S  1 XY    0.000000   0.000000   0.000000   0.000000   0.000000
   18  S  1 XZ    0.000000   0.000000   0.000000  -0.181536   0.000000
   19  S  1 YZ    0.000000  -0.179788   0.000000   0.000000   0.025776
   20  O  2  S    0.028078   0.000000   0.069981  -0.057465   0.000000
   21  O  2  S   -0.047259   0.000000  -0.062285   0.057302   0.000000
   22  O  2  S   -0.166519   0.000000  -1.102243   0.795318   0.000000
   23  O  2  X   -0.043567   0.000000  -0.092833  -0.119351   0.000000
   24  O  2  Y    0.000000  -0.321442   0.000000   0.000000  -0.035459
   25  O  2  Z    0.336683   0.000000  -0.043841  -0.226177   0.000000
   26  O  2  X   -0.022448   0.000000  -0.324623  -0.195829   0.000000
   27  O  2  Y    0.000000  -0.423461   0.000000   0.000000  -0.047050
   28  O  2  Z    0.260172   0.000000  -0.095332  -0.314754   0.000000
   29  O  2 XX   -0.007701   0.000000  -0.025104   0.001157   0.000000
   30  O  2 YY    0.012799   0.000000   0.030635  -0.007758   0.000000
   31  O  2 ZZ   -0.005097   0.000000  -0.005531   0.006601   0.000000
   32  O  2 XY    0.000000  -0.010208   0.000000   0.000000   0.034346
   33  O  2 XZ    0.027821   0.000000   0.009214  -0.020509   0.000000
   34  O  2 YZ    0.000000  -0.002679   0.000000   0.000000  -0.023244
   35  O  3  S    0.028078   0.000000   0.069981   0.057465   0.000000
   36  O  3  S   -0.047259   0.000000  -0.062285  -0.057302   0.000000
   37  O  3  S   -0.166519   0.000000  -1.102243  -0.795318   0.000000
   38  O  3  X    0.043567   0.000000   0.092833  -0.119351   0.000000
   39  O  3  Y    0.000000  -0.321442   0.000000   0.000000  -0.035459
   40  O  3  Z    0.336683   0.000000  -0.043841   0.226177   0.000000
   41  O  3  X    0.022448   0.000000   0.324623  -0.195829   0.000000
   42  O  3  Y    0.000000  -0.423461   0.000000   0.000000  -0.047050
   43  O  3  Z    0.260172   0.000000  -0.095332   0.314754   0.000000
   44  O  3 XX   -0.007701   0.000000  -0.025104  -0.001157   0.000000
   45  O  3 YY    0.012799   0.000000   0.030635   0.007758   0.000000
   46  O  3 ZZ   -0.005097   0.000000  -0.005531  -0.006601   0.000000
   47  O  3 XY    0.000000   0.010208   0.000000   0.000000  -0.034346
   48  O  3 XZ   -0.027821   0.000000  -0.009214  -0.020509   0.000000
   49  O  3 YZ    0.000000  -0.002679   0.000000   0.000000  -0.023244

                     21         22         23         24         25
                    0.3974     0.4807     0.4860     0.6470     0.6581
                     A1         A1         B1         A1         B1  
    1  S  1  S   -0.061187  -0.026051   0.000000   0.071015   0.000000
    2  S  1  S   -0.157698   0.073727   0.000000   0.369705   0.000000
    3  S  1  S   -0.858721  -0.189842   0.000000   1.241217   0.000000
    4  S  1  S    1.467753   2.386790   0.000000   0.119019   0.000000
    5  S  1  X    0.000000   0.000000   0.113460   0.000000  -0.241939
    6  S  1  Y    0.000000   0.000000   0.000000   0.000000   0.000000
    7  S  1  Z   -0.259505   0.000204   0.000000  -0.069342   0.000000
    8  S  1  X    0.000000   0.000000  -0.120137   0.000000   1.323203
    9  S  1  Y    0.000000   0.000000   0.000000   0.000000   0.000000
   10  S  1  Z    1.040046   0.212812   0.000000   0.478550   0.000000
   11  S  1  X    0.000000   0.000000   0.908114   0.000000  -0.375814
   12  S  1  Y    0.000000   0.000000   0.000000   0.000000   0.000000
   13  S  1  Z   -0.660328   0.495723   0.000000   0.489294   0.000000
   14  S  1 XX   -0.137257   0.561734   0.000000  -0.416726   0.000000
   15  S  1 YY    0.205716  -0.681876   0.000000  -0.077324   0.000000
   16  S  1 ZZ   -0.068459   0.120142   0.000000   0.494050   0.000000
   17  S  1 XY    0.000000   0.000000   0.000000   0.000000   0.000000
   18  S  1 XZ    0.000000   0.000000   0.735238   0.000000  -0.223794
   19  S  1 YZ    0.000000   0.000000   0.000000   0.000000   0.000000
   20  O  2  S    0.016531   0.028320  -0.016870   0.037212  -0.054733
   21  O  2  S   -0.041943  -0.006722  -0.017804  -0.029085   0.074850
   22  O  2  S   -0.265904  -1.230001   1.034969  -0.498741   0.610846
   23  O  2  X    0.005915   0.213632  -0.185304   0.208963  -0.066477
   24  O  2  Y    0.000000   0.000000   0.000000   0.000000   0.000000
   25  O  2  Z   -0.026121  -0.225761   0.216278   0.127897   0.163641
   26  O  2  X   -0.221374  -0.559455   0.744579  -0.963654   0.847650
   27  O  2  Y    0.000000   0.000000   0.000000   0.000000   0.000000
   28  O  2  Z    0.035184   0.627290  -0.269416  -0.116095  -0.868781
   29  O  2 XX    0.012667  -0.012327   0.001735   0.013735   0.033042
   30  O  2 YY    0.020464  -0.003665  -0.021876  -0.001460   0.003699
   31  O  2 ZZ   -0.033131   0.015992   0.020141  -0.012275  -0.036741
   32  O  2 XY    0.000000   0.000000   0.000000   0.000000   0.000000
   33  O  2 XZ    0.020297   0.043814  -0.029520  -0.004762  -0.001890
   34  O  2 YZ    0.000000   0.000000   0.000000   0.000000   0.000000
   35  O  3  S    0.016531   0.028320   0.016870   0.037212   0.054733
   36  O  3  S   -0.041943  -0.006722   0.017804  -0.029085  -0.074850
   37  O  3  S   -0.265904  -1.230001  -1.034969  -0.498741  -0.610846
   38  O  3  X   -0.005915  -0.213632  -0.185304  -0.208963  -0.066477
   39  O  3  Y    0.000000   0.000000   0.000000   0.000000   0.000000
   40  O  3  Z   -0.026121  -0.225761  -0.216278   0.127897  -0.163641
   41  O  3  X    0.221374   0.559455   0.744579   0.963654   0.847650
   42  O  3  Y    0.000000   0.000000   0.000000   0.000000   0.000000
   43  O  3  Z    0.035184   0.627290   0.269416  -0.116095   0.868781
   44  O  3 XX    0.012667  -0.012327  -0.001735   0.013735  -0.033042
   45  O  3 YY    0.020464  -0.003665   0.021876  -0.001460  -0.003699
   46  O  3 ZZ   -0.033131   0.015992  -0.020141  -0.012275   0.036741
   47  O  3 XY    0.000000   0.000000   0.000000   0.000000   0.000000
   48  O  3 XZ   -0.020297  -0.043814  -0.029520   0.004762  -0.001890
   49  O  3 YZ    0.000000   0.000000   0.000000   0.000000   0.000000

                     26         27         28         29         30
                    0.6783     0.6910     0.7437     0.8117     0.8155
                     B2         A2         A1         A2         B2  
    1  S  1  S    0.000000   0.000000   0.072893   0.000000   0.000000
    2  S  1  S    0.000000   0.000000   0.462112   0.000000   0.000000
    3  S  1  S    0.000000   0.000000   1.374289   0.000000   0.000000
    4  S  1  S    0.000000   0.000000  -0.531199   0.000000   0.000000
    5  S  1  X    0.000000   0.000000   0.000000   0.000000   0.000000
    6  S  1  Y   -0.022713   0.000000   0.000000   0.000000  -0.043364
    7  S  1  Z    0.000000   0.000000  -0.078261   0.000000   0.000000
    8  S  1  X    0.000000   0.000000   0.000000   0.000000   0.000000
    9  S  1  Y    0.073412   0.000000   0.000000   0.000000   0.054587
   10  S  1  Z    0.000000   0.000000   0.399920   0.000000   0.000000
   11  S  1  X    0.000000   0.000000   0.000000   0.000000   0.000000
   12  S  1  Y    0.463998   0.000000   0.000000   0.000000  -1.089635
   13  S  1  Z    0.000000   0.000000  -0.998904   0.000000   0.000000
   14  S  1 XX    0.000000   0.000000   0.176312   0.000000   0.000000
   15  S  1 YY    0.000000   0.000000   0.478659   0.000000   0.000000
   16  S  1 ZZ    0.000000   0.000000  -0.654970   0.000000   0.000000
   17  S  1 XY    0.000000   0.840329   0.000000   0.709945   0.000000
   18  S  1 XZ    0.000000   0.000000   0.000000   0.000000   0.000000
   19  S  1 YZ    1.021267   0.000000   0.000000   0.000000  -0.259393
   20  O  2  S    0.000000   0.000000   0.018080   0.000000   0.000000
   21  O  2  S    0.000000   0.000000   0.058409   0.000000   0.000000
   22  O  2  S    0.000000   0.000000  -0.070172   0.000000   0.000000
   23  O  2  X    0.000000   0.000000  -0.030926   0.000000   0.000000
   24  O  2  Y   -0.310792  -0.229264   0.000000   0.635898  -0.602216
   25  O  2  Z    0.000000   0.000000  -0.188603   0.000000   0.000000
   26  O  2  X    0.000000   0.000000  -0.247655   0.000000   0.000000
   27  O  2  Y   -0.277758   0.880588   0.000000  -0.371349   1.105678
   28  O  2  Z    0.000000   0.000000   1.008212   0.000000   0.000000
   29  O  2 XX    0.000000   0.000000   0.001006   0.000000   0.000000
   30  O  2 YY    0.000000   0.000000   0.012173   0.000000   0.000000
   31  O  2 ZZ    0.000000   0.000000  -0.013178   0.000000   0.000000
   32  O  2 XY    0.057028  -0.024261   0.000000   0.025217   0.000361
   33  O  2 XZ    0.000000   0.000000  -0.034678   0.000000   0.000000
   34  O  2 YZ    0.044691   0.034456   0.000000   0.055105   0.025376
   35  O  3  S    0.000000   0.000000   0.018080   0.000000   0.000000
   36  O  3  S    0.000000   0.000000   0.058409   0.000000   0.000000
   37  O  3  S    0.000000   0.000000  -0.070172   0.000000   0.000000
   38  O  3  X    0.000000   0.000000   0.030926   0.000000   0.000000
   39  O  3  Y   -0.310792   0.229264   0.000000  -0.635898  -0.602216
   40  O  3  Z    0.000000   0.000000  -0.188603   0.000000   0.000000
   41  O  3  X    0.000000   0.000000   0.247655   0.000000   0.000000
   42  O  3  Y   -0.277758  -0.880588   0.000000   0.371349   1.105678
   43  O  3  Z    0.000000   0.000000   1.008212   0.000000   0.000000
   44  O  3 XX    0.000000   0.000000   0.001006   0.000000   0.000000
   45  O  3 YY    0.000000   0.000000   0.012173   0.000000   0.000000
   46  O  3 ZZ    0.000000   0.000000  -0.013178   0.000000   0.000000
   47  O  3 XY   -0.057028  -0.024261   0.000000   0.025217  -0.000361
   48  O  3 XZ    0.000000   0.000000   0.034678   0.000000   0.000000
   49  O  3 YZ    0.044691  -0.034456   0.000000  -0.055105   0.025376

                     31         32         33         34         35
                    0.9284     0.9314     1.5628     1.6079     1.6746
                     A1         B1         A1         B1         A1  
    1  S  1  S    0.018390   0.000000  -0.053541   0.000000   0.027971
    2  S  1  S    0.033514   0.000000   0.030527   0.000000   0.048056
    3  S  1  S    0.252305   0.000000  -0.604033   0.000000   0.384229
    4  S  1  S   -0.263505   0.000000   0.373305   0.000000   3.047840
    5  S  1  X    0.000000   0.087389   0.000000  -0.149159   0.000000
    6  S  1  Y    0.000000   0.000000   0.000000   0.000000   0.000000
    7  S  1  Z   -0.070724   0.000000   0.156828   0.000000  -0.141633
    8  S  1  X    0.000000  -0.414253   0.000000   0.917948   0.000000
    9  S  1  Y    0.000000   0.000000   0.000000   0.000000   0.000000
   10  S  1  Z    0.207310   0.000000  -0.618298   0.000000   0.862477
   11  S  1  X    0.000000   1.130435   0.000000   1.120242   0.000000
   12  S  1  Y    0.000000   0.000000   0.000000   0.000000   0.000000
   13  S  1  Z   -0.138856   0.000000   0.316851   0.000000   1.105472
   14  S  1 XX   -0.541753   0.000000  -0.774434   0.000000   0.415456
   15  S  1 YY   -0.130005   0.000000   0.496877   0.000000  -0.543042
   16  S  1 ZZ    0.671757   0.000000   0.277557   0.000000   0.127587
   17  S  1 XY    0.000000   0.000000   0.000000   0.000000   0.000000
   18  S  1 XZ    0.000000   0.116181   0.000000   0.442388   0.000000
   19  S  1 YZ    0.000000   0.000000   0.000000   0.000000   0.000000
   20  O  2  S    0.016285   0.011381  -0.022384  -0.003597   0.016260
   21  O  2  S   -0.102605   0.015900   0.861444  -0.952277   0.942714
   22  O  2  S    0.120387   0.075711  -0.436222   2.369471  -2.902606
   23  O  2  X   -0.456002   0.345413   0.381752   0.345658  -0.374593
   24  O  2  Y    0.000000   0.000000   0.000000   0.000000   0.000000
   25  O  2  Z   -0.467625   0.497920  -0.377865  -0.180781   0.274280
   26  O  2  X    0.143353  -1.040320  -0.156400   0.283450  -0.482583
   27  O  2  Y    0.000000   0.000000   0.000000   0.000000   0.000000
   28  O  2  Z    0.174384  -0.719661  -0.000163  -0.408690   0.150658
   29  O  2 XX    0.087065   0.056391  -0.144624  -0.134373   0.085747
   30  O  2 YY   -0.030138  -0.038926   0.244940   0.164596  -0.060329
   31  O  2 ZZ   -0.056927  -0.017464  -0.100316  -0.030223  -0.025418
   32  O  2 XY    0.000000   0.000000   0.000000   0.000000   0.000000
   33  O  2 XZ    0.050295   0.031130  -0.082895   0.139777  -0.178658
   34  O  2 YZ    0.000000   0.000000   0.000000   0.000000   0.000000
   35  O  3  S    0.016285  -0.011381  -0.022384   0.003597   0.016260
   36  O  3  S   -0.102605  -0.015900   0.861444   0.952277   0.942714
   37  O  3  S    0.120387  -0.075711  -0.436222  -2.369471  -2.902606
   38  O  3  X    0.456002   0.345413  -0.381752   0.345658   0.374593
   39  O  3  Y    0.000000   0.000000   0.000000   0.000000   0.000000
   40  O  3  Z   -0.467625  -0.497920  -0.377865   0.180781   0.274280
   41  O  3  X   -0.143353  -1.040320   0.156400   0.283450   0.482583
   42  O  3  Y    0.000000   0.000000   0.000000   0.000000   0.000000
   43  O  3  Z    0.174384   0.719661  -0.000163   0.408690   0.150658
   44  O  3 XX    0.087065  -0.056391  -0.144624   0.134373   0.085747
   45  O  3 YY   -0.030138   0.038926   0.244940  -0.164596  -0.060329
   46  O  3 ZZ   -0.056927   0.017464  -0.100316   0.030223  -0.025418
   47  O  3 XY    0.000000   0.000000   0.000000   0.000000   0.000000
   48  O  3 XZ   -0.050295   0.031130   0.082895   0.139777   0.178658
   49  O  3 YZ    0.000000   0.000000   0.000000   0.000000   0.000000

                     36         37         38         39         40
                    1.9121     2.0360     2.0796     2.1738     2.3140
                     B1         B2         A2         A1         B1  
    1  S  1  S    0.000000   0.000000   0.000000   0.015236   0.000000
    2  S  1  S    0.000000   0.000000   0.000000  -0.070084   0.000000
    3  S  1  S    0.000000   0.000000   0.000000   0.103672   0.000000
    4  S  1  S    0.000000   0.000000   0.000000  -0.376120   0.000000
    5  S  1  X   -0.185978   0.000000   0.000000   0.000000  -0.083351
    6  S  1  Y    0.000000  -0.021988   0.000000   0.000000   0.000000
    7  S  1  Z    0.000000   0.000000   0.000000  -0.063440   0.000000
    8  S  1  X    0.731750   0.000000   0.000000   0.000000   0.133756
    9  S  1  Y    0.000000   0.159770   0.000000   0.000000   0.000000
   10  S  1  Z    0.000000   0.000000   0.000000   0.229636   0.000000
   11  S  1  X   -0.087161   0.000000   0.000000   0.000000  -0.097352
   12  S  1  Y    0.000000   0.018309   0.000000   0.000000   0.000000
   13  S  1  Z    0.000000   0.000000   0.000000  -0.189387   0.000000
   14  S  1 XX    0.000000   0.000000   0.000000   0.293850   0.000000
   15  S  1 YY    0.000000   0.000000   0.000000  -0.512606   0.000000
   16  S  1 ZZ    0.000000   0.000000   0.000000   0.218756   0.000000
   17  S  1 XY    0.000000   0.000000   0.006478   0.000000   0.000000
   18  S  1 XZ    0.650439   0.000000   0.000000   0.000000   0.913732
   19  S  1 YZ    0.000000  -0.188404   0.000000   0.000000   0.000000
   20  O  2  S    0.000190   0.000000   0.000000  -0.001313   0.018123
   21  O  2  S    0.591277   0.000000   0.000000  -0.520518   0.623058
   22  O  2  S   -0.052648   0.000000   0.000000   0.466667  -0.266243
   23  O  2  X    0.325693   0.000000   0.000000  -0.200280   0.240106
   24  O  2  Y    0.000000   0.073330  -0.073038   0.000000   0.000000
   25  O  2  Z   -0.265472   0.000000   0.000000   0.096413  -0.228698
   26  O  2  X    0.005753   0.000000   0.000000   0.168264   0.018009
   27  O  2  Y    0.000000  -0.084538   0.117061   0.000000   0.000000
   28  O  2  Z    0.120756   0.000000   0.000000  -0.062262   0.331158
   29  O  2 XX    0.064975   0.000000   0.000000  -0.232657   0.374400
   30  O  2 YY   -0.394136   0.000000   0.000000   0.567315   0.297255
   31  O  2 ZZ    0.329161   0.000000   0.000000  -0.334658  -0.671656
   32  O  2 XY    0.000000   0.239452   0.588897   0.000000   0.000000
   33  O  2 XZ    0.339201   0.000000   0.000000  -0.367184   0.157156
   34  O  2 YZ    0.000000   0.671299   0.408180   0.000000   0.000000
   35  O  3  S   -0.000190   0.000000   0.000000  -0.001313  -0.018123
   36  O  3  S   -0.591277   0.000000   0.000000  -0.520518  -0.623058
   37  O  3  S    0.052648   0.000000   0.000000   0.466667   0.266243
   38  O  3  X    0.325693   0.000000   0.000000   0.200280   0.240106
   39  O  3  Y    0.000000   0.073330   0.073038   0.000000   0.000000
   40  O  3  Z    0.265472   0.000000   0.000000   0.096413   0.228698
   41  O  3  X    0.005753   0.000000   0.000000  -0.168264   0.018009
   42  O  3  Y    0.000000  -0.084538  -0.117061   0.000000   0.000000
   43  O  3  Z   -0.120756   0.000000   0.000000  -0.062262  -0.331158
   44  O  3 XX   -0.064975   0.000000   0.000000  -0.232657  -0.374400
   45  O  3 YY    0.394136   0.000000   0.000000   0.567315  -0.297255
   46  O  3 ZZ   -0.329161   0.000000   0.000000  -0.334658   0.671656
   47  O  3 XY    0.000000  -0.239452   0.588897   0.000000   0.000000
   48  O  3 XZ    0.339201   0.000000   0.000000   0.367184   0.157156
   49  O  3 YZ    0.000000   0.671299  -0.408180   0.000000   0.000000

                     41         42         43         44         45
                    2.5495     2.5641     2.6395     2.8538     2.8636
                     B1         A2         B2         B1         A1  
    1  S  1  S    0.000000   0.000000   0.000000   0.000000   0.082163
    2  S  1  S    0.000000   0.000000   0.000000   0.000000   0.887389
    3  S  1  S    0.000000   0.000000   0.000000   0.000000   2.194842
    4  S  1  S    0.000000   0.000000   0.000000   0.000000   1.358296
    5  S  1  X    0.109033   0.000000   0.000000  -0.205866   0.000000
    6  S  1  Y    0.000000   0.000000   0.115879   0.000000   0.000000
    7  S  1  Z    0.000000   0.000000   0.000000   0.000000  -0.004071
    8  S  1  X    0.216466   0.000000   0.000000   2.568415   0.000000
    9  S  1  Y    0.000000   0.000000  -0.779666   0.000000   0.000000
   10  S  1  Z    0.000000   0.000000   0.000000   0.000000   1.033357
   11  S  1  X    0.055931   0.000000   0.000000   0.401863   0.000000
   12  S  1  Y    0.000000   0.000000  -0.220812   0.000000   0.000000
   13  S  1  Z    0.000000   0.000000   0.000000   0.000000   0.076855
   14  S  1 XX    0.000000   0.000000   0.000000   0.000000   0.937568
   15  S  1 YY    0.000000   0.000000   0.000000   0.000000  -0.451727
   16  S  1 ZZ    0.000000   0.000000   0.000000   0.000000  -0.485841
   17  S  1 XY    0.000000   0.908881   0.000000   0.000000   0.000000
   18  S  1 XZ   -0.174108   0.000000   0.000000   1.225875   0.000000
   19  S  1 YZ    0.000000   0.000000  -0.686080   0.000000   0.000000
   20  O  2  S   -0.019733   0.000000   0.000000  -0.017442   0.031153
   21  O  2  S   -0.796880   0.000000   0.000000   0.128015   0.297607
   22  O  2  S    1.246875   0.000000   0.000000   2.091596  -1.995856
   23  O  2  X   -0.181573   0.000000   0.000000   0.604389  -0.279485
   24  O  2  Y    0.000000   0.074484   0.061135   0.000000   0.000000
   25  O  2  Z   -0.003054   0.000000   0.000000  -0.386551   0.330270
   26  O  2  X    0.772682   0.000000   0.000000   0.780025  -0.710796
   27  O  2  Y    0.000000   0.366604   0.403785   0.000000   0.000000
   28  O  2  Z   -0.128201   0.000000   0.000000  -0.627264   0.773653
   29  O  2 XX    0.699064   0.000000   0.000000   0.226388  -0.112246
   30  O  2 YY   -0.528786   0.000000   0.000000  -0.267599   0.480225
   31  O  2 ZZ   -0.170278   0.000000   0.000000   0.041211  -0.367979
   32  O  2 XY    0.000000   0.533483   0.819127   0.000000   0.000000
   33  O  2 XZ   -0.009616   0.000000   0.000000  -0.810648   0.825130
   34  O  2 YZ    0.000000  -0.691711  -0.314758   0.000000   0.000000
   35  O  3  S    0.019733   0.000000   0.000000   0.017442   0.031153
   36  O  3  S    0.796880   0.000000   0.000000  -0.128015   0.297607
   37  O  3  S   -1.246875   0.000000   0.000000  -2.091596  -1.995856
   38  O  3  X   -0.181573   0.000000   0.000000   0.604389   0.279485
   39  O  3  Y    0.000000  -0.074484   0.061135   0.000000   0.000000
   40  O  3  Z    0.003054   0.000000   0.000000   0.386551   0.330270
   41  O  3  X    0.772682   0.000000   0.000000   0.780025   0.710796
   42  O  3  Y    0.000000  -0.366604   0.403785   0.000000   0.000000
   43  O  3  Z    0.128201   0.000000   0.000000   0.627264   0.773653
   44  O  3 XX   -0.699064   0.000000   0.000000  -0.226388  -0.112246
   45  O  3 YY    0.528786   0.000000   0.000000   0.267599   0.480225
   46  O  3 ZZ    0.170278   0.000000   0.000000  -0.041211  -0.367979
   47  O  3 XY    0.000000   0.533483  -0.819127   0.000000   0.000000
   48  O  3 XZ   -0.009616   0.000000   0.000000  -0.810648  -0.825130
   49  O  3 YZ    0.000000   0.691711  -0.314758   0.000000   0.000000

                     46
                    2.9630
                     A1  
    1  S  1  S    0.037020
    2  S  1  S    0.395314
    3  S  1  S    0.990322
    4  S  1  S    0.700657
    5  S  1  X    0.000000
    6  S  1  Y    0.000000
    7  S  1  Z   -0.130674
    8  S  1  X    0.000000
    9  S  1  Y    0.000000
   10  S  1  Z    1.332935
   11  S  1  X    0.000000
   12  S  1  Y    0.000000
   13  S  1  Z    0.324027
   14  S  1 XX   -0.720075
   15  S  1 YY   -0.219412
   16  S  1 ZZ    0.939487
   17  S  1 XY    0.000000
   18  S  1 XZ    0.000000
   19  S  1 YZ    0.000000
   20  O  2  S    0.029678
   21  O  2  S    0.137898
   22  O  2  S   -0.988299
   23  O  2  X   -0.316907
   24  O  2  Y    0.000000
   25  O  2  Z   -0.053228
   26  O  2  X   -0.572288
   27  O  2  Y    0.000000
   28  O  2  Z   -0.065536
   29  O  2 XX   -0.914304
   30  O  2 YY    0.156680
   31  O  2 ZZ    0.757625
   32  O  2 XY    0.000000
   33  O  2 XZ    0.064861
   34  O  2 YZ    0.000000
   35  O  3  S    0.029678
   36  O  3  S    0.137898
   37  O  3  S   -0.988299
   38  O  3  X    0.316907
   39  O  3  Y    0.000000
   40  O  3  Z   -0.053228
   41  O  3  X    0.572288
   42  O  3  Y    0.000000
   43  O  3  Z   -0.065536
   44  O  3 XX   -0.914304
   45  O  3 YY    0.156680
   46  O  3 ZZ    0.757625
   47  O  3 XY    0.000000
   48  O  3 XZ   -0.064861
   49  O  3 YZ    0.000000
 ...... END OF RHF CALCULATION ......
 STEP CPU TIME =     4.28 TOTAL CPU TIME =        4.5 (    0.1 MIN)
 TOTAL WALL CLOCK TIME=        4.5 SECONDS, CPU UTILIZATION IS  99.78%

     ---------------------------------------------------------------------
     PROPERTIES FOR THE PBE      DFT FUNCTIONAL (RHF  TYPE) DENSITY MATRIX
     ---------------------------------------------------------------------

          -----------------
          ENERGY COMPONENTS
          -----------------

         WAVEFUNCTION NORMALIZATION =       1.0000000000

                ONE ELECTRON ENERGY =   -1035.8823236946
                TWO ELECTRON ENERGY =     346.4562498298
           NUCLEAR REPULSION ENERGY =     141.9468838616
                                      ------------------
                       TOTAL ENERGY =    -547.4791900032

 ELECTRON-ELECTRON POTENTIAL ENERGY =     346.4562498298
  NUCLEUS-ELECTRON POTENTIAL ENERGY =   -1589.2303036506
   NUCLEUS-NUCLEUS POTENTIAL ENERGY =     141.9468838616
                                      ------------------
             TOTAL POTENTIAL ENERGY =   -1100.8271699592
               TOTAL KINETIC ENERGY =     553.3479799559
                 VIRIAL RATIO (V/T) =       1.9893940338

          ---------------------------------------
          MULLIKEN AND LOWDIN POPULATION ANALYSES
          ---------------------------------------

     ATOMIC MULLIKEN POPULATION IN EACH MOLECULAR ORBITAL

                      1          2          3          4          5

                  2.000000   2.000000   2.000000   2.000000   2.000000

    1             2.000090  -0.001475   0.001679   2.002321   1.995562
    2            -0.000045   1.000737   0.999160  -0.001160   0.002219
    3            -0.000045   1.000737   0.999160  -0.001160   0.002219

                      6          7          8          9         10

                  2.000000   2.000000   2.000000   2.000000   2.000000

    1             1.999800   1.997965   0.737284   0.651650   0.866000
    2             0.000100   0.001018   0.631358   0.674175   0.567000
    3             0.000100   0.001018   0.631358   0.674175   0.567000

                     11         12         13         14         15

                  2.000000   2.000000   2.000000   2.000000   2.000000

    1             0.987900   0.200966   0.173317   0.244101   0.251681
    2             0.506050   0.899517   0.913342   0.877949   0.874159
    3             0.506050   0.899517   0.913342   0.877949   0.874159

                     16

                  2.000000

    1             1.425825
    2             0.287087
    3             0.287087

               ----- POPULATIONS IN EACH AO -----
                             MULLIKEN      LOWDIN
              1  S  1  S      2.00026     1.99597
              2  S  1  S      2.01201     1.87846
              3  S  1  S      0.83211     0.49089
              4  S  1  S      1.02437     0.59649
              5  S  1  X      1.99658     1.95638
              6  S  1  Y      1.99526     1.95522
              7  S  1  Z      1.99689     1.96574
              8  S  1  X      0.70012     0.60603
              9  S  1  Y      0.65499     0.56902
             10  S  1  Z      0.88072     0.82942
             11  S  1  X      0.12488     0.26359
             12  S  1  Y      0.16206     0.23795
             13  S  1  Z      0.23268     0.36341
             14  S  1 XX      0.19085     0.37995
             15  S  1 YY      0.18414     0.21947
             16  S  1 ZZ      0.24410     0.36267
             17  S  1 XY      0.24916     0.32260
             18  S  1 XZ      0.05349     0.32215
             19  S  1 YZ      0.00000     0.05414
             20  O  2  S      1.99832     1.97665
             21  O  2  S      0.78855     0.59051
             22  O  2  S      0.83120     0.47109
             23  O  2  X      1.16123     1.12230
             24  O  2  Y      0.94994     0.88928
             25  O  2  Z      1.11296     1.08153
             26  O  2  X      0.40917     0.49643
             27  O  2  Y      0.47784     0.51662
             28  O  2  Z      0.46010     0.54928
             29  O  2 XX      0.00910     0.20325
             30  O  2 YY      0.00570     0.17517
             31  O  2 ZZ      0.01115     0.18253
             32  O  2 XY      0.01128     0.01696
             33  O  2 XZ      0.00612     0.03595
             34  O  2 YZ      0.00000     0.00767
             35  O  3  S      1.99832     1.97665
             36  O  3  S      0.78855     0.59051
             37  O  3  S      0.83120     0.47109
             38  O  3  X      1.16123     1.12230
             39  O  3  Y      0.94994     0.88928
             40  O  3  Z      1.11296     1.08153
             41  O  3  X      0.40917     0.49643
             42  O  3  Y      0.47784     0.51662
             43  O  3  Z      0.46010     0.54928
             44  O  3 XX      0.00910     0.20325
             45  O  3 YY      0.00570     0.17517
             46  O  3 ZZ      0.01115     0.18253
             47  O  3 XY      0.01128     0.01696
             48  O  3 XZ      0.00612     0.03595
             49  O  3 YZ      0.00000     0.00767

          ----- MULLIKEN ATOMIC OVERLAP POPULATIONS -----
          (OFF-DIAGONAL ELEMENTS NEED TO BE MULTIPLIED BY 2)

             1           2           3

    1   14.6416788
    2    0.4464931   7.9703876
    3    0.4464931  -0.1842131   7.9703876

          TOTAL MULLIKEN AND LOWDIN ATOMIC POPULATIONS
       ATOM         MULL.POP.    CHARGE          LOW.POP.     CHARGE
    1 S            15.534665    0.465335        15.369539    0.630461
    2 O             8.232668   -0.232668         8.315231   -0.315231
    3 O             8.232668   -0.232668         8.315231   -0.315231

          MULLIKEN SPHERICAL HARMONIC POPULATIONS
       ATOM           S       P       D      F      G      H      I    TOTAL
    1 S             5.87    8.74    0.92   0.00   0.00   0.00   0.00   15.53
    2 O             3.62    4.57    0.04   0.00   0.00   0.00   0.00    8.23
    3 O             3.62    4.57    0.04   0.00   0.00   0.00   0.00    8.23

          -------------------------------
          BOND ORDER AND VALENCE ANALYSIS     BOND ORDER THRESHOLD=0.050
          -------------------------------

                   BOND                       BOND                       BOND
  ATOM PAIR DIST  ORDER      ATOM PAIR DIST  ORDER      ATOM PAIR DIST  ORDER
    1   2  1.100  2.149        1   3  1.100  2.149

                       TOTAL       BONDED        FREE
      ATOM            VALENCE     VALENCE     VALENCE
    1 S                 4.298       4.298       0.000
    2 O                 2.149       2.149       0.000
    3 O                 2.149       2.149       0.000

          ---------------------
          ELECTROSTATIC MOMENTS
          ---------------------

 POINT   1           X           Y           Z (BOHR)    CHARGE
                 0.000000    0.000000    0.000000        0.00 (A.U.)
         DX          DY          DZ         /D/  (DEBYE)
     0.000000    0.000000   -0.927286    0.927286
 ...... END OF PROPERTY EVALUATION ......
 STEP CPU TIME =     0.02 TOTAL CPU TIME =        4.5 (    0.1 MIN)
 TOTAL WALL CLOCK TIME=        4.5 SECONDS, CPU UTILIZATION IS 100.00%
               580000  WORDS OF DYNAMIC MEMORY USED
 EXECUTION OF GAMESS TERMINATED NORMALLY Thu Feb 26 00:11:29 2015
 DDI: 263624 bytes (0.3 MB / 0 MWords) used by master data server.

 ----------------------------------------
 CPU timing information for all processes
 ========================================
 0: 4.475 + 0.10 = 4.486
 ----------------------------------------
 ddikick.x: exited gracefully.
----- accounting info -----
Files used on the master node dftfe.crc.nd.edu were:
-rw-r--r-- 1 pmehta1 campus   37475 Feb 26 00:11 /tmp/gamess.dat
-rw-r--r-- 1 pmehta1 campus     142 Feb 26 00:11 /tmp/gamess.F05
-rw-r--r-- 1 pmehta1 campus 2340312 Feb 26 00:11 /tmp/gamess.F08
-rw-r--r-- 1 pmehta1 campus 1220440 Feb 26 00:11 /tmp/gamess.F10
Thu Feb 26 00:11:32 EST 2015
0.243u 0.175s 0:07.91 5.1%	0+0k 0+96io 0pf+0w
