----- GAMESS execution script 'rungms' -----
This job is running on host dftfe.crc.nd.edu
under operating system Linux at Thu Feb 26 00:17:21 EST 2015
Available scratch disk space (Kbyte units) at beginning of the job is
Filesystem     1K-blocks     Used Available Use% Mounted on
/dev/sda2      147771864 22813912 117451520  17% /
GAMESS temporary binary files will be written to /tmp
GAMESS supplementary output files will be written to /tmp
Copying input file gamess.inp to your run's scratch directory...

 Distributed Data Interface kickoff program.
 Initiating 1 compute processes on 1 nodes to run the following command:
 /opt/crc/gamess/2012R1/gamess/gamess.00.x gamess 

          ******************************************************
          *         GAMESS VERSION =  1 MAY 2012 (R1)          *
          *             FROM IOWA STATE UNIVERSITY             *
          * M.W.SCHMIDT, K.K.BALDRIDGE, J.A.BOATZ, S.T.ELBERT, *
          *   M.S.GORDON, J.H.JENSEN, S.KOSEKI, N.MATSUNAGA,   *
          *          K.A.NGUYEN, S.J.SU, T.L.WINDUS,           *
          *       TOGETHER WITH M.DUPUIS, J.A.MONTGOMERY       *
          *         J.COMPUT.CHEM.  14, 1347-1363(1993)        *
          **************** 64 BIT LINUX VERSION ****************

  SINCE 1993, STUDENTS AND POSTDOCS WORKING AT IOWA STATE UNIVERSITY
  AND ALSO IN THEIR VARIOUS JOBS AFTER LEAVING ISU HAVE MADE IMPORTANT
  CONTRIBUTIONS TO THE CODE:
     IVANA ADAMOVIC, CHRISTINE AIKENS, YURI ALEXEEV, POOJA ARORA,
     ANDREY ASADCHEV, ROB BELL, PRADIPTA BANDYOPADHYAY, JONATHAN BENTZ,
     BRETT BODE, GALINA CHABAN, WEI CHEN, CHEOL HO CHOI, PAUL DAY,
     ALBERT DEFUSCO, TIM DUDLEY, DMITRI FEDOROV, GRAHAM FLETCHER,
     MARK FREITAG, KURT GLAESEMANN, DAN KEMP, GRANT MERRILL,
     NORIYUKI MINEZAWA, JONATHAN MULLIN, TAKESHI NAGATA,
     SEAN NEDD, HEATHER NETZLOFF, BOSILJKA NJEGIC, RYAN OLSON, MIKE PAK,
     JIM SHOEMAKER, LYUDMILA SLIPCHENKO, SAROM SOK, JIE SONG,
     TETSUYA TAKETSUGU, SIMON WEBB, SOOHAENG YOO, FEDERICO ZAHARIEV

  ADDITIONAL CODE HAS BEEN PROVIDED BY COLLABORATORS IN OTHER GROUPS:
     IOWA STATE UNIVERSITY:
          JOE IVANIC, LAIMUTIS BYTAUTAS, KLAUS RUEDENBERG
     UNIVERSITY OF TOKYO: KIMIHIKO HIRAO, TAKAHITO NAKAJIMA,
          TAKAO TSUNEDA, MUNEAKI KAMIYA, SUSUMU YANAGISAWA,
          KIYOSHI YAGI, MAHITO CHIBA, SEIKEN TOKURA, NAOAKI KAWAKAMI
     UNIVERSITY OF AARHUS: FRANK JENSEN
     UNIVERSITY OF IOWA: VISVALDAS KAIRYS, HUI LI
     NATIONAL INST. OF STANDARDS AND TECHNOLOGY: WALT STEVENS, DAVID GARMER
     UNIVERSITY OF PISA: BENEDETTA MENNUCCI, JACOPO TOMASI
     UNIVERSITY OF MEMPHIS: HENRY KURTZ, PRAKASHAN KORAMBATH
     UNIVERSITY OF ALBERTA: TOBY ZENG, MARIUSZ KLOBUKOWSKI
     UNIVERSITY OF NEW ENGLAND: MARK SPACKMAN
     MIE UNIVERSITY: HIROAKI UMEDA
     MICHIGAN STATE UNIVERSITY:
          KAROL KOWALSKI, MARTA WLOCH, JEFFREY GOUR, JESSE LUTZ, PIOTR PIECUCH
     UNIVERSITY OF SILESIA: MONIKA MUSIAL, STANISLAW KUCHARSKI
     FACULTES UNIVERSITAIRES NOTRE-DAME DE LA PAIX:
          OLIVIER QUINET, BENOIT CHAMPAGNE
     UNIVERSITY OF CALIFORNIA - SANTA BARBARA: BERNARD KIRTMAN
     INSTITUTE FOR MOLECULAR SCIENCE:
          KAZUYA ISHIMURA, MICHIO KATOUDA, AND SHIGERU NAGASE
     UNIVERSITY OF NOTRE DAME: DAN CHIPMAN
     KYUSHU UNIVERSITY:
          HARUYUKI NAKANO,
          FENG LONG GU, JACEK KORCHOWIEC, MARCIN MAKOWSKI, AND YURIKO AOKI,
          HIROTOSHI MORI AND EISAKU MIYOSHI
     PENNSYLVANIA STATE UNIVERSITY:
          TZVETELIN IORDANOV, CHET SWALINA, JONATHAN SKONE,
          SHARON HAMMES-SCHIFFER
     WASEDA UNIVERSITY:
          MASATO KOBAYASHI, TOMOKO AKAMA, TSUGUKI TOUMA,
          TAKESHI YOSHIKAWA, YASUHIRO IKABATA, HIROMI NAKAI
     UNIVERSITY OF NEBRASKA:
          PEIFENG SU, DEJUN SI, NANDUN THELLAMUREGE, YALI WANG, HUI LI
     UNIVERSITY OF ZURICH:
          ROBERTO PEVERATI, KIM BALDRIDGE
     N. COPERNICUS UNIVERSITY AND JACKSON STATE UNIVERSITY:
          MARIA BARYSZ

 EXECUTION OF GAMESS BEGUN Thu Feb 26 00:17:21 2015

            ECHO OF THE FIRST FEW INPUT CARDS -
 INPUT CARD> $BASIS GBASIS=PC1 $END                                                         
 INPUT CARD> $CONTRL COORD=ZMT ISPHER=1 RUNTYP=ENERGY DFTTYP=PBE $END                       
 INPUT CARD>                                                                                
 INPUT CARD> $DATA                                                                          
 INPUT CARD>Title                                                                           
 INPUT CARD>Cnv 2                                                                           
 INPUT CARD>                                                                                
 INPUT CARD>S                                                                               
 INPUT CARD>O 1 1.50                                                                        
 INPUT CARD>O 1 1.50 2 160.0                                                                
 INPUT CARD> $END                                                                           
    1000000 WORDS OF MEMORY AVAILABLE

     BASIS OPTIONS
     -------------
     GBASIS=PC1          IGAUSS=       0      POLAR=NONE    
     NDFUNC=       0     NFFUNC=       0     DIFFSP=       F
     NPFUNC=       0      DIFFS=       F     BASNAM=        


     RUN TITLE
     ---------
 Title                                                                           

 THE POINT GROUP OF THE MOLECULE IS CNV     
 THE ORDER OF THE PRINCIPAL AXIS IS     2

 YOUR FULLY SUBSTITUTED Z-MATRIX IS
 S   
 O      1   1.5000000
 O      1   1.5000000  2  160.0000

 THE MOMENTS OF INERTIA ARE (AMU-ANGSTROM**2)
 IXX=     1.085   IYY=    69.807   IZZ=    70.892

 ATOM      ATOMIC                      COORDINATES (BOHR)
           CHARGE         X                   Y                   Z
 S          16.0     0.0000000000        0.0000000000       -0.2461789035
 O           8.0    -2.7915252057        0.0000000000        0.2460423076
 O           8.0     2.7915252057        0.0000000000        0.2460423076

          INTERNUCLEAR DISTANCES (ANGS.)
          ------------------------------

                1 S          2 O          3 O     

   1 S       0.0000000    1.5000000 *  1.5000000 *
   2 O       1.5000000 *  0.0000000    2.9544233 *
   3 O       1.5000000 *  2.9544233 *  0.0000000  

  * ... LESS THAN  3.000


     ATOMIC BASIS SET
     ----------------
 THE CONTRACTED PRIMITIVE FUNCTIONS HAVE BEEN UNNORMALIZED
 THE CONTRACTED BASIS FUNCTIONS ARE NOW NORMALIZED TO UNITY

  SHELL TYPE  PRIMITIVE        EXPONENT          CONTRACTION COEFFICIENT(S)

 S         

      1   S       1         55510.0000000    0.000587229760
      1   S       2          8326.7000000    0.004532413947
      1   S       3          1895.6000000    0.023265261648
      1   S       4           536.7700000    0.089696133027
      1   S       5           174.6700000    0.254098332277
      1   S       6            62.5780000    0.438665087637
      1   S       7            23.5730000    0.314547135094
      1   S       8             5.8908000    0.032727897102

      2   S       9          8326.7000000   -0.000019755715
      2   S      10          1895.6000000   -0.000043822381
      2   S      11           536.7700000   -0.001730264906
      2   S      12           174.6700000   -0.009381263460
      2   S      13            62.5780000   -0.064050766303
      2   S      14            23.5730000   -0.082478179196
      2   S      15             5.8908000    0.478342956889
      2   S      16             2.1852000    0.626896670208

      3   S      17          1895.6000000    0.000016227260
      3   S      18           536.7700000    0.000191135619
      3   S      19           174.6700000    0.001952069674
      3   S      20            62.5780000    0.010578701087
      3   S      21            23.5730000    0.022164934551
      3   S      22             5.8908000   -0.184968323118
      3   S      23             2.1852000   -0.480920750976
      3   S      24             0.4528200    1.243822243872

      4   S      25             0.1620200    1.000000000000

      5   P      26           395.4500000    0.004642761329
      5   P      27            92.8340000    0.036023396489
      5   P      28            29.2660000    0.149058869978
      5   P      29            10.5950000    0.360033266263
      5   P      30             4.0272000    0.455756476221
      5   P      31             1.5484000    0.206167664178

      6   P      32            92.8340000    0.000169901442
      6   P      33            29.2660000   -0.002541839934
      6   P      34            10.5950000   -0.007867614595
      6   P      35             4.0272000   -0.037231009184
      6   P      36             1.5484000    0.161417246830
      6   P      37             0.4613400    0.902230419976

      7   P      38             0.1313100    1.000000000000

      8   D      39             0.5500000    1.000000000000

 O         

     15   S      40          2306.7000000    0.005424388755
     15   S      41           347.1500000    0.040474749465
     15   S      42            78.8900000    0.180219634554
     15   S      43            21.8760000    0.462370311787
     15   S      44             6.6646000    0.454888396263

     16   S      45           347.1500000   -0.000655003786
     16   S      46            78.8900000   -0.005362052952
     16   S      47            21.8760000   -0.074902158894
     16   S      48             6.6646000   -0.181442579655
     16   S      49             1.0669000    1.102006874042

     17   S      50             0.3070000    1.000000000000

     18   P      51            17.0220000    0.068979967443
     18   P      52             3.6838000    0.351985516325
     18   P      53             0.9923400    0.724036547822

     19   P      54             0.2448700    1.000000000000

     20   D      55             1.0000000    1.000000000000

 TOTAL NUMBER OF BASIS SET SHELLS             =   20
 NUMBER OF CARTESIAN GAUSSIAN BASIS FUNCTIONS =   49
 NOTE: THIS RUN WILL RESTRICT THE MO VARIATION SPACE TO SPHERICAL HARMONICS.
 THE NUMBER OF ORBITALS KEPT IN THE VARIATIONAL SPACE WILL BE PRINTED LATER.
 NUMBER OF ELECTRONS                          =   32
 CHARGE OF MOLECULE                           =    0
 SPIN MULTIPLICITY                            =    1
 NUMBER OF OCCUPIED ORBITALS (ALPHA)          =   16
 NUMBER OF OCCUPIED ORBITALS (BETA )          =   16
 TOTAL NUMBER OF ATOMS                        =    3
 THE NUCLEAR REPULSION ENERGY IS      101.7761846443

     LEBEDEV GRID-BASED DFT OPTIONS
     ------------------------------
     DFTTYP=PBE     
     NRAD  =      96     NLEB  =     302
     NRAD0 =      24     NLEB0 =     110
     SWOFF =    5.00E-03 (PURE SCF -> DFT)
     SWITCH=    3.00E-04 (COARSE -> TIGHT GRID)
     THRESH=    0.00E+00 GTHRE=    1.00E+00

 GRIMME'S EMPIRICAL DISPERSION CORRECTION= F

     $CONTRL OPTIONS
     ---------------
 SCFTYP=RHF          RUNTYP=ENERGY       EXETYP=RUN     
 MPLEVL=       0     CITYP =NONE         CCTYP =NONE         VBTYP =NONE    
 DFTTYP=PBE          TDDFT =NONE    
 MULT  =       1     ICHARG=       0     NZVAR =       0     COORD =ZMT     
 PP    =NONE         RELWFN=NONE         LOCAL =NONE         NUMGRD=       F
 ISPHER=       1     NOSYM =       0     MAXIT =      30     UNITS =ANGS    
 PLTORB=       F     MOLPLT=       F     AIMPAC=       F     FRIEND=        
 NPRINT=       7     IREST =       0     GEOM  =INPUT   
 NORMF =       0     NORMP =       0     ITOL  =      20     ICUT  =       9
 INTTYP=BEST         GRDTYP=BEST         QMTTOL= 1.0E-06

     $SYSTEM OPTIONS
     ---------------
  REPLICATED MEMORY=     1000000 WORDS (ON EVERY NODE).
 DISTRIBUTED MEMDDI=           0 MILLION WORDS IN AGGREGATE,
 MEMDDI DISTRIBUTED OVER   1 PROCESSORS IS           0 WORDS/PROCESSOR.
 TOTAL MEMORY REQUESTED ON EACH PROCESSOR=     1000000 WORDS.
 TIMLIM=      525600.00 MINUTES, OR     365.0 DAYS.
 PARALL= F  BALTYP=  DLB     KDIAG=    0  COREFL= F
 MXSEQ2=     300 MXSEQ3=     150

          ----------------
          PROPERTIES INPUT
          ----------------

     MOMENTS            FIELD           POTENTIAL          DENSITY
 IEMOM =       1   IEFLD =       0   IEPOT =       0   IEDEN =       0
 WHERE =COMASS     WHERE =NUCLEI     WHERE =NUCLEI     WHERE =NUCLEI  
 OUTPUT=BOTH       OUTPUT=BOTH       OUTPUT=BOTH       OUTPUT=BOTH    
 IEMINT=       0   IEFINT=       0                     IEDINT=       0
                                                       MORB  =       0
          EXTRAPOLATION IN EFFECT
          DIIS IN EFFECT
 ORBITAL PRINTING OPTION: NPREO=     1    49     2     1

     -------------------------------
     INTEGRAL TRANSFORMATION OPTIONS
     -------------------------------
     NWORD  =            0
     CUTOFF = 1.0E-09     MPTRAN =       0
     DIRTRF =       F     AOINTS =DUP     

          ----------------------
          INTEGRAL INPUT OPTIONS
          ----------------------
 NOPK  =       1 NORDER=       0 SCHWRZ=       F

   --- ENCODED Z MATRIX ---
 COORD  TYPE   I   J   K   L   M   N
    1      1    3   1
    2      1    2   1
    3      2    2   1   3

 THE DETERMINANT OF THE G MATRIX IS 10**(    -4)

 THE DETERMINANT OF THE G MATRIX IS 10**(    -4)
 * * * WARNING * * *
 YOUR B MATRIX HAS A SMALL DETERMINANT.
 THIS SUGGESTS YOU MAY HAVE BADLY CHOSEN COORDINATES.

     ------------------------------------------
     THE POINT GROUP IS CNV, NAXIS= 2, ORDER= 4
     ------------------------------------------

 -- VARIATIONAL SPACE WILL BE RESTRICTED TO PURE SPHERICAL HARMONICS ONLY --
 AFTER EXCLUDING CONTAMINANT COMBINATIONS FROM THE CARTESIAN GAUSSIAN BASIS
 SET, THE NUMBER OF SPHERICAL HARMONICS KEPT IN THE VARIATION SPACE IS   46

     DIMENSIONS OF THE SYMMETRY SUBSPACES ARE
 A1  =   19     A2  =    5     B1  =   14     B2  =    8

 ..... DONE SETTING UP THE RUN .....
 STEP CPU TIME =     0.01 TOTAL CPU TIME =        0.0 (    0.0 MIN)
 TOTAL WALL CLOCK TIME=        0.0 SECONDS, CPU UTILIZATION IS  50.00%

          ********************
          1 ELECTRON INTEGRALS
          ********************
 ...... END OF ONE-ELECTRON INTEGRALS ......
 STEP CPU TIME =     0.00 TOTAL CPU TIME =        0.0 (    0.0 MIN)
 TOTAL WALL CLOCK TIME=        0.0 SECONDS, CPU UTILIZATION IS  50.00%

          -------------
          GUESS OPTIONS
          -------------
          GUESS =HUCKEL            NORB  =       0          NORDER=       0
          MIX   =       F          PRTMO =       F          PUNMO =       F
          TOLZ  = 1.0E-08          TOLE  = 1.0E-05
          SYMDEN=       F          PURIFY=       F

 INITIAL GUESS ORBITALS GENERATED BY HUCKEL   ROUTINE.
 HUCKEL GUESS REQUIRES     21583 WORDS.

 STATISTICS FOR GENERATION OF SYMMETRY ORBITAL -Q- MATRIX
 NUMBER OF CARTESIAN ATOMIC ORBITALS=         49
 NUMBER OF SPHERICAL CONTAMINANTS DROPPED=     3
 NUMBER OF LINEARLY DEPENDENT MOS DROPPED=     0
 TOTAL NUMBER OF MOS IN VARIATION SPACE=      46

 SYMMETRIES FOR INITIAL GUESS ORBITALS FOLLOW.   BOTH SET(S).
    16 ORBITALS ARE OCCUPIED (    7 CORE ORBITALS).
     8=?A1      9=?B1     10=A1      11=B2      12=A1      13=B1      14=A2  
    15=B1      16=?A1     17=B2      18=A1      19=B1      20=A1      21=A1  
    22=A1      23=A1      24=A1      25=A1      26=?A1 
 ...... END OF INITIAL ORBITAL SELECTION ......
 STEP CPU TIME =     0.01 TOTAL CPU TIME =        0.0 (    0.0 MIN)
 TOTAL WALL CLOCK TIME=        0.0 SECONDS, CPU UTILIZATION IS  66.67%

                    ----------------------
                    AO INTEGRAL TECHNOLOGY
                    ----------------------
     S,P,L SHELL ROTATED AXIS INTEGRALS, REPROGRAMMED BY
        KAZUYA ISHIMURA (IMS) AND JOSE SIERRA (SYNSTAR).
     S,P,D,L SHELL ROTATED AXIS INTEGRALS PROGRAMMED BY
        KAZUYA ISHIMURA (INSTITUTE FOR MOLECULAR SCIENCE).
     S,P,D,F,G SHELL TO TOTAL QUARTET ANGULAR MOMENTUM SUM 5,
        ERIC PROGRAM BY GRAHAM FLETCHER (ELORET AND NASA ADVANCED
        SUPERCOMPUTING DIVISION, AMES RESEARCH CENTER).
     S,P,D,F,G,L SHELL GENERAL RYS QUADRATURE PROGRAMMED BY
        MICHEL DUPUIS (PACIFIC NORTHWEST NATIONAL LABORATORY).

          --------------------
          2 ELECTRON INTEGRALS
          --------------------

 THE -PK- OPTION IS OFF, THE INTEGRALS ARE NOT IN SUPERMATRIX FORM.
 STORING   15000 INTEGRALS/RECORD ON DISK, USING 12 BYTES/INTEGRAL.
 TWO ELECTRON INTEGRAL EVALUATION REQUIRES   90606 WORDS OF MEMORY.
 II,JST,KST,LST =  1  1  1  1 NREC =         1 INTLOC =    1
 II,JST,KST,LST =  2  1  1  1 NREC =         1 INTLOC =    2
 II,JST,KST,LST =  3  1  1  1 NREC =         1 INTLOC =    7
 II,JST,KST,LST =  4  1  1  1 NREC =         1 INTLOC =   22
 II,JST,KST,LST =  5  1  1  1 NREC =         1 INTLOC =   56
 II,JST,KST,LST =  6  1  1  1 NREC =         1 INTLOC =  125
 II,JST,KST,LST =  7  1  1  1 NREC =         1 INTLOC =  329
 II,JST,KST,LST =  8  1  1  1 NREC =         1 INTLOC =  776
 II,JST,KST,LST =  9  1  1  1 NREC =         1 INTLOC = 2864
 II,JST,KST,LST = 10  1  1  1 NREC =         1 INTLOC = 2864
 II,JST,KST,LST = 11  1  1  1 NREC =         1 INTLOC = 2864
 II,JST,KST,LST = 12  1  1  1 NREC =         1 INTLOC = 2864
 II,JST,KST,LST = 13  1  1  1 NREC =         1 INTLOC = 2864
 II,JST,KST,LST = 14  1  1  1 NREC =         1 INTLOC = 2864
 II,JST,KST,LST = 15  1  1  1 NREC =         1 INTLOC = 2864
 II,JST,KST,LST = 16  1  1  1 NREC =         1 INTLOC = 5093
 II,JST,KST,LST = 17  1  1  1 NREC =         1 INTLOC = 8246
 II,JST,KST,LST = 18  1  1  1 NREC =         1 INTLOC =12666
 II,JST,KST,LST = 19  1  1  1 NREC =         2 INTLOC =14709
 II,JST,KST,LST = 20  1  1  1 NREC =         5 INTLOC =  552
 TOTAL NUMBER OF NONZERO TWO-ELECTRON INTEGRALS =              169899
         12 INTEGRAL RECORDS WERE STORED ON DISK FILE  8.
  ...... END OF TWO-ELECTRON INTEGRALS .....
 STEP CPU TIME =     0.16 TOTAL CPU TIME =        0.2 (    0.0 MIN)
 TOTAL WALL CLOCK TIME=        0.2 SECONDS, CPU UTILIZATION IS  94.74%

          --------------------------
               R-PBE SCF CALCULATION
          --------------------------

     NUCLEAR ENERGY =       101.7761846443
     MAXIT =   30     NPUNCH=    2
     EXTRAP=T  DAMP=F  SHIFT=F  RSTRCT=F  DIIS=T  DEM=F  SOSCF=F
         DENSITY MATRIX CONVERGENCE THRESHOLD=  1.00E-05
     COARSE -> FINE DFT GRID SWITCH THRESHOLD=  3.00E-04 (SWITCH IN $DFT)
                   HF -> DFT SWITCH THRESHOLD=  5.00E-03 (SWOFF IN $DFT)
     MEMORY REQUIRED FOR RHF ITERS=    183108 WORDS.

 DFT CODE IS SWITCHING FROM THE FINE GRID NRAD= 96,  NLEB=  302
                      TO THE COARSE GRID NRAD0= 24, NLEB0=  110

     EXCHANGE FUNCTIONAL   =PBE       
     CORRELATION FUNCTIONAL=PBE       
     DFT THRESHOLD         =.460E-07
     GRID CHANGE THRESHOLD =.300E-03
 FOR AN EULER-MACLAURIN QUADRATURE USING  96 RADIAL POINTS:
 SMALLEST GAUSSIAN PRIMITIVE EXPONENT=        0.1313100000 OF TYPE -P-
 ON ATOM NUMBER   1 HAS RADIAL NORMALIZATION=  1.000000
  LARGEST GAUSSIAN PRIMITIVE EXPONENT=    55510.0000000000 OF TYPE -S-
 ON ATOM NUMBER   1 HAS RADIAL NORMALIZATION=  0.999999
 DFT IS SWITCHED OFF, PERFORMING PURE SCF UNTIL SWOFF THRESHOLD IS REACHED.

 ITER EX DEM     TOTAL ENERGY        E CHANGE  DENSITY CHANGE    DIIS ERROR
   1  0  0     -545.9418069510  -545.9418069510   0.389322905   1.495835570
          * * *   INITIATING DIIS PROCEDURE   * * *
   2  1  0     -546.6686617394    -0.7268547884   0.495423979   0.306591601
   3  2  0     -546.7837195956    -0.1150578562   0.153252686   0.295593300
   4  3  0     -546.9881047206    -0.2043851250   0.106592308   0.033567312
   5  4  0     -546.9995012868    -0.0113965663   0.105091356   0.022499244
   6  5  0     -547.0063330236    -0.0068317368   0.107852416   0.015159635
   7  6  0     -547.0109349597    -0.0046019361   0.044598774   0.005250845
   8  7  0     -547.0116185391    -0.0006835794   0.011087603   0.001337104
   9  8  0     -547.0116522259    -0.0000336868   0.001002130   0.000447950
 CONVERGED TO SWOFF, SO DFT CALCULATION IS NOW SWITCHED ON.
          * * *   INITIATING DIIS PROCEDURE   * * *
  10  9  0     -548.1878068035    -1.1761545776   0.236029818   0.112845033
  11 10  0     -548.1906208880    -0.0028140845   0.200694313   0.096787333
  12 11  0     -548.1938967437    -0.0032758556   0.083114794   0.122371830
  13 12  0     -548.2271466991    -0.0332499554   0.028942197   0.026378680
  14 13  0     -548.2289355617    -0.0017888625   0.012146062   0.002494464
  15 14  0     -548.2289658261    -0.0000302645   0.003047831   0.000531299
  16 15  0     -548.2289673366    -0.0000015105   0.000159624   0.000054158
 DFT CODE IS SWITCHING BACK TO THE FINE GRID
          * * *   INITIATING DIIS PROCEDURE   * * *
  17 16  0     -548.1990591887     0.0299081479   0.018446017   0.013225335
  18 17  0     -548.1993702108    -0.0003110220   0.015630108   0.003990678
  19 18  0     -548.1993972541    -0.0000270434   0.005020015   0.002883547
  20 19  0     -548.1994324012    -0.0000351471   0.001491277   0.001943881
  21 20  0     -548.1994401412    -0.0000077400   0.000361092   0.000279537
  22 21  0     -548.1994403934    -0.0000002522   0.000112451   0.000016839
  23 22  0     -548.1994403948    -0.0000000014   0.000028569   0.000007213
  24 23  0     -548.1994403950    -0.0000000002   0.000001909   0.000000386
  25 24  0     -548.1994403950     0.0000000000   0.000000150   0.000000054

          -----------------
          DENSITY CONVERGED
          -----------------
     TIME TO FORM FOCK OPERATORS=       4.8 SECONDS (       0.2 SEC/ITER)
     TIME TO SOLVE SCF EQUATIONS=       0.0 SECONDS (       0.0 SEC/ITER)

 FINAL R-PBE ENERGY IS     -548.1994403950 AFTER  25 ITERATIONS
 DFT EXCHANGE + CORRELATION ENERGY =       -42.4615244823
 TOTAL ELECTRON NUMBER             =        31.9999883989

          ------------
          EIGENVECTORS
          ------------

                      1          2          3          4          5
                  -88.2172   -18.8140   -18.8139    -7.8324    -5.8545
                     A1         B1         A1         A1         B1  
    1  S  1  S    1.002986   0.000000  -0.000031  -0.274074   0.000000
    2  S  1  S   -0.010302   0.000000  -0.000158   1.039301   0.000000
    3  S  1  S    0.001837   0.000000  -0.000367   0.040601   0.000000
    4  S  1  S   -0.000550   0.000000   0.007447  -0.009292   0.000000
    5  S  1  X    0.000000   0.000070   0.000000   0.000000   0.996746
    6  S  1  Y    0.000000   0.000000   0.000000   0.000000   0.000000
    7  S  1  Z    0.000060   0.000000  -0.000002   0.011558   0.000000
    8  S  1  X    0.000000  -0.002084   0.000000   0.000000   0.008839
    9  S  1  Y    0.000000   0.000000   0.000000   0.000000   0.000000
   10  S  1  Z    0.000034   0.000000   0.000313   0.001171   0.000000
   11  S  1  X    0.000000  -0.008956   0.000000   0.000000  -0.000696
   12  S  1  Y    0.000000   0.000000   0.000000   0.000000   0.000000
   13  S  1  Z    0.000019   0.000000   0.001232  -0.000215   0.000000
   14  S  1 XX    0.000228   0.000000   0.000535   0.002195   0.000000
   15  S  1 YY   -0.000118   0.000000  -0.000320  -0.001087   0.000000
   16  S  1 ZZ   -0.000110   0.000000  -0.000215  -0.001108   0.000000
   17  S  1 XY    0.000000   0.000000   0.000000   0.000000   0.000000
   18  S  1 XZ    0.000000  -0.000418   0.000000   0.000000   0.000901
   19  S  1 YZ    0.000000   0.000000   0.000000   0.000000   0.000000
   20  O  2  S    0.000017   0.703337   0.703227   0.000009   0.000415
   21  O  2  S    0.000071   0.026704   0.025417   0.000192  -0.000100
   22  O  2  S   -0.000220  -0.015540  -0.011157  -0.001274  -0.000832
   23  O  2  X   -0.000060   0.000797   0.000963  -0.000567  -0.000779
   24  O  2  Y    0.000000   0.000000   0.000000   0.000000   0.000000
   25  O  2  Z    0.000012  -0.000189   0.000025   0.000097   0.000140
   26  O  2  X   -0.000235  -0.003446  -0.003167  -0.001894  -0.000395
   27  O  2  Y    0.000000   0.000000   0.000000   0.000000   0.000000
   28  O  2  Z    0.000048   0.001154   0.000046   0.000450   0.000260
   29  O  2 XX   -0.000164  -0.000364  -0.000418  -0.000819  -0.000770
   30  O  2 YY    0.000088   0.000205   0.000217   0.000440   0.000428
   31  O  2 ZZ    0.000076   0.000159   0.000201   0.000379   0.000342
   32  O  2 XY    0.000000   0.000000   0.000000   0.000000   0.000000
   33  O  2 XZ    0.000062   0.000183   0.000072   0.000319   0.000384
   34  O  2 YZ    0.000000   0.000000   0.000000   0.000000   0.000000
   35  O  3  S    0.000017  -0.703337   0.703227   0.000009  -0.000415
   36  O  3  S    0.000071  -0.026704   0.025417   0.000192   0.000100
   37  O  3  S   -0.000220   0.015540  -0.011157  -0.001274   0.000832
   38  O  3  X    0.000060   0.000797  -0.000963   0.000567  -0.000779
   39  O  3  Y    0.000000   0.000000   0.000000   0.000000   0.000000
   40  O  3  Z    0.000012   0.000189   0.000025   0.000097  -0.000140
   41  O  3  X    0.000235  -0.003446   0.003167   0.001894  -0.000395
   42  O  3  Y    0.000000   0.000000   0.000000   0.000000   0.000000
   43  O  3  Z    0.000048  -0.001154   0.000046   0.000450  -0.000260
   44  O  3 XX   -0.000164   0.000364  -0.000418  -0.000819   0.000770
   45  O  3 YY    0.000088  -0.000205   0.000217   0.000440  -0.000428
   46  O  3 ZZ    0.000076  -0.000159   0.000201   0.000379  -0.000342
   47  O  3 XY    0.000000   0.000000   0.000000   0.000000   0.000000
   48  O  3 XZ   -0.000062   0.000183  -0.000072  -0.000319   0.000384
   49  O  3 YZ    0.000000   0.000000   0.000000   0.000000   0.000000

                      6          7          8          9         10
                   -5.8518    -5.8490    -1.0259    -0.9688    -0.5912
                     B2         A1         A1         B1         A1  
    1  S  1  S    0.000000   0.003269   0.050399   0.000000   0.064196
    2  S  1  S    0.000000  -0.012290  -0.148196   0.000000  -0.177528
    3  S  1  S    0.000000   0.000342   0.291697   0.000000   0.411461
    4  S  1  S    0.000000  -0.001029   0.163440   0.000000   0.361732
    5  S  1  X    0.000000   0.000000   0.000000   0.132290   0.000000
    6  S  1  Y    0.997013   0.000000   0.000000   0.000000   0.000000
    7  S  1  Z    0.000000   0.996988  -0.026960   0.000000  -0.006883
    8  S  1  X    0.000000   0.000000   0.000000  -0.250556   0.000000
    9  S  1  Y    0.008558   0.000000   0.000000   0.000000   0.000000
   10  S  1  Z    0.000000   0.008376   0.056023   0.000000   0.023775
   11  S  1  X    0.000000   0.000000   0.000000  -0.003036   0.000000
   12  S  1  Y   -0.000094   0.000000   0.000000   0.000000   0.000000
   13  S  1  Z    0.000000  -0.000124   0.004237   0.000000  -0.004592
   14  S  1 XX    0.000000  -0.000790   0.073576   0.000000  -0.024876
   15  S  1 YY    0.000000  -0.000266  -0.038619   0.000000   0.014353
   16  S  1 ZZ    0.000000   0.001056  -0.034958   0.000000   0.010522
   17  S  1 XY    0.000000   0.000000   0.000000   0.000000   0.000000
   18  S  1 XZ    0.000000   0.000000   0.000000  -0.031261   0.000000
   19  S  1 YZ    0.000766   0.000000   0.000000   0.000000   0.000000
   20  O  2  S    0.000000  -0.000088  -0.125031  -0.145335   0.105942
   21  O  2  S    0.000000  -0.000058   0.251595   0.289018  -0.218529
   22  O  2  S    0.000000   0.000618   0.272391   0.356889  -0.360256
   23  O  2  X    0.000000   0.000241   0.107098   0.104417   0.185823
   24  O  2  Y    0.000062   0.000000   0.000000   0.000000   0.000000
   25  O  2  Z    0.000000   0.000015  -0.013050  -0.013948  -0.026454
   26  O  2  X    0.000000   0.000346   0.036759   0.042910   0.090377
   27  O  2  Y   -0.000012   0.000000   0.000000   0.000000   0.000000
   28  O  2  Z    0.000000  -0.000088  -0.001004  -0.008079  -0.009466
   29  O  2 XX    0.000000   0.000278   0.009819   0.010255   0.012127
   30  O  2 YY    0.000000  -0.000108  -0.004081  -0.004729  -0.006849
   31  O  2 ZZ    0.000000  -0.000170  -0.005739  -0.005526  -0.005278
   32  O  2 XY    0.000151   0.000000   0.000000   0.000000   0.000000
   33  O  2 XZ    0.000000   0.000048   0.000746  -0.002551  -0.004106
   34  O  2 YZ   -0.000047   0.000000   0.000000   0.000000   0.000000
   35  O  3  S    0.000000  -0.000088  -0.125031   0.145335   0.105942
   36  O  3  S    0.000000  -0.000058   0.251595  -0.289018  -0.218529
   37  O  3  S    0.000000   0.000618   0.272391  -0.356889  -0.360256
   38  O  3  X    0.000000  -0.000241  -0.107098   0.104417  -0.185823
   39  O  3  Y    0.000062   0.000000   0.000000   0.000000   0.000000
   40  O  3  Z    0.000000   0.000015  -0.013050   0.013948  -0.026454
   41  O  3  X    0.000000  -0.000346  -0.036759   0.042910  -0.090377
   42  O  3  Y   -0.000012   0.000000   0.000000   0.000000   0.000000
   43  O  3  Z    0.000000  -0.000088  -0.001004   0.008079  -0.009466
   44  O  3 XX    0.000000   0.000278   0.009819  -0.010255   0.012127
   45  O  3 YY    0.000000  -0.000108  -0.004081   0.004729  -0.006849
   46  O  3 ZZ    0.000000  -0.000170  -0.005739   0.005526  -0.005278
   47  O  3 XY   -0.000151   0.000000   0.000000   0.000000   0.000000
   48  O  3 XZ    0.000000  -0.000048  -0.000746  -0.002551   0.004106
   49  O  3 YZ   -0.000047   0.000000   0.000000   0.000000   0.000000

                     11         12         13         14         15
                   -0.4491    -0.4318    -0.4269    -0.3439    -0.3388
                     B1         B2         A1         A2         B1  
    1  S  1  S    0.000000   0.000000  -0.007620   0.000000   0.000000
    2  S  1  S    0.000000   0.000000   0.024655   0.000000   0.000000
    3  S  1  S    0.000000   0.000000  -0.044253   0.000000   0.000000
    4  S  1  S    0.000000   0.000000  -0.081513   0.000000   0.000000
    5  S  1  X   -0.165018   0.000000   0.000000   0.000000  -0.014509
    6  S  1  Y    0.000000  -0.199281   0.000000   0.000000   0.000000
    7  S  1  Z    0.000000   0.000000  -0.196234   0.000000   0.000000
    8  S  1  X    0.388377   0.000000   0.000000   0.000000   0.031215
    9  S  1  Y    0.000000   0.463000   0.000000   0.000000   0.000000
   10  S  1  Z    0.000000   0.000000   0.454432   0.000000   0.000000
   11  S  1  X   -0.009972   0.000000   0.000000   0.000000   0.035515
   12  S  1  Y    0.000000   0.250510   0.000000   0.000000   0.000000
   13  S  1  Z    0.000000   0.000000   0.244712   0.000000   0.000000
   14  S  1 XX    0.000000   0.000000  -0.030546   0.000000   0.000000
   15  S  1 YY    0.000000   0.000000  -0.010306   0.000000   0.000000
   16  S  1 ZZ    0.000000   0.000000   0.040853   0.000000   0.000000
   17  S  1 XY    0.000000   0.000000   0.000000  -0.130345   0.000000
   18  S  1 XZ    0.026236   0.000000   0.000000   0.000000  -0.127079
   19  S  1 YZ    0.000000   0.029478   0.000000   0.000000   0.000000
   20  O  2  S   -0.065482   0.000000   0.004225   0.000000  -0.000661
   21  O  2  S    0.139734   0.000000  -0.009426   0.000000   0.000381
   22  O  2  S    0.215290   0.000000  -0.014807   0.000000   0.012535
   23  O  2  X   -0.377210   0.000000   0.087052   0.000000   0.098844
   24  O  2  Y    0.000000   0.316175   0.000000   0.460839   0.000000
   25  O  2  Z    0.069554   0.000000   0.305158   0.000000   0.450004
   26  O  2  X   -0.217552   0.000000   0.059204   0.000000   0.068656
   27  O  2  Y    0.000000   0.188555   0.000000   0.323249   0.000000
   28  O  2  Z    0.046183   0.000000   0.182283   0.000000   0.315437
   29  O  2 XX   -0.014637   0.000000   0.009480   0.000000   0.002834
   30  O  2 YY    0.008224   0.000000  -0.002525   0.000000   0.000706
   31  O  2 ZZ    0.006413   0.000000  -0.006955   0.000000  -0.003541
   32  O  2 XY    0.000000   0.021894   0.000000   0.018305   0.000000
   33  O  2 XZ    0.006611   0.000000   0.019535   0.000000   0.018543
   34  O  2 YZ    0.000000  -0.002804   0.000000  -0.002376   0.000000
   35  O  3  S    0.065482   0.000000   0.004225   0.000000   0.000661
   36  O  3  S   -0.139734   0.000000  -0.009426   0.000000  -0.000381
   37  O  3  S   -0.215290   0.000000  -0.014807   0.000000  -0.012535
   38  O  3  X   -0.377210   0.000000  -0.087052   0.000000   0.098844
   39  O  3  Y    0.000000   0.316175   0.000000  -0.460839   0.000000
   40  O  3  Z   -0.069554   0.000000   0.305158   0.000000  -0.450004
   41  O  3  X   -0.217552   0.000000  -0.059204   0.000000   0.068656
   42  O  3  Y    0.000000   0.188555   0.000000  -0.323249   0.000000
   43  O  3  Z   -0.046183   0.000000   0.182283   0.000000  -0.315437
   44  O  3 XX    0.014637   0.000000   0.009480   0.000000  -0.002834
   45  O  3 YY   -0.008224   0.000000  -0.002525   0.000000  -0.000706
   46  O  3 ZZ   -0.006413   0.000000  -0.006955   0.000000   0.003541
   47  O  3 XY    0.000000  -0.021894   0.000000   0.018305   0.000000
   48  O  3 XZ    0.006611   0.000000  -0.019535   0.000000   0.018543
   49  O  3 YZ    0.000000  -0.002804   0.000000   0.002376   0.000000

                     16         17         18         19         20
                   -0.2341    -0.1649    -0.1391     0.1694     0.3624
                     A1         B2         A1         B1         A1  
    1  S  1  S    0.029375   0.000000   0.013696   0.000000  -0.036972
    2  S  1  S   -0.139110   0.000000  -0.066136   0.000000  -0.148623
    3  S  1  S    0.120058   0.000000   0.057489   0.000000  -0.586096
    4  S  1  S    0.743752   0.000000   0.420864   0.000000   0.935837
    5  S  1  X    0.000000   0.000000   0.000000  -0.130374   0.000000
    6  S  1  Y    0.000000  -0.214485   0.000000   0.000000   0.000000
    7  S  1  Z    0.082926   0.000000  -0.198151   0.000000   0.267696
    8  S  1  X    0.000000   0.000000   0.000000   0.337069   0.000000
    9  S  1  Y    0.000000   0.544181   0.000000   0.000000   0.000000
   10  S  1  Z   -0.201258   0.000000   0.508327   0.000000  -1.033728
   11  S  1  X    0.000000   0.000000   0.000000   1.793421   0.000000
   12  S  1  Y    0.000000   0.478573   0.000000   0.000000   0.000000
   13  S  1  Z   -0.103838   0.000000   0.496293   0.000000   1.235858
   14  S  1 XX   -0.204508   0.000000  -0.109816   0.000000   0.111519
   15  S  1 YY    0.105769   0.000000   0.063664   0.000000   0.050291
   16  S  1 ZZ    0.098739   0.000000   0.046152   0.000000  -0.161810
   17  S  1 XY    0.000000   0.000000   0.000000   0.000000   0.000000
   18  S  1 XZ    0.000000   0.000000   0.000000  -0.117141   0.000000
   19  S  1 YZ    0.000000  -0.006230   0.000000   0.000000   0.000000
   20  O  2  S    0.016478   0.000000   0.020132  -0.082059   0.011594
   21  O  2  S   -0.042620   0.000000  -0.044252   0.131186  -0.001964
   22  O  2  S   -0.116747   0.000000  -0.149500   0.993103  -0.275721
   23  O  2  X   -0.346307   0.000000  -0.252291   0.146054   0.084162
   24  O  2  Y    0.000000  -0.393213   0.000000   0.000000   0.000000
   25  O  2  Z    0.243030   0.000000  -0.310327  -0.132771  -0.093123
   26  O  2  X   -0.257653   0.000000  -0.216255   0.415728  -0.154585
   27  O  2  Y    0.000000  -0.328246   0.000000   0.000000   0.000000
   28  O  2  Z    0.183661   0.000000  -0.264401  -0.159301  -0.074256
   29  O  2 XX   -0.002600   0.000000  -0.000410   0.015305  -0.039493
   30  O  2 YY    0.001286   0.000000   0.000883  -0.006129   0.019923
   31  O  2 ZZ    0.001314   0.000000  -0.000473  -0.009176   0.019570
   32  O  2 XY    0.000000  -0.000121   0.000000   0.000000   0.000000
   33  O  2 XZ    0.001904   0.000000   0.000970   0.003467  -0.014081
   34  O  2 YZ    0.000000  -0.000658   0.000000   0.000000   0.000000
   35  O  3  S    0.016478   0.000000   0.020132   0.082059   0.011594
   36  O  3  S   -0.042620   0.000000  -0.044252  -0.131186  -0.001964
   37  O  3  S   -0.116747   0.000000  -0.149500  -0.993103  -0.275721
   38  O  3  X    0.346307   0.000000   0.252291   0.146054  -0.084162
   39  O  3  Y    0.000000  -0.393213   0.000000   0.000000   0.000000
   40  O  3  Z    0.243030   0.000000  -0.310327   0.132771  -0.093123
   41  O  3  X    0.257653   0.000000   0.216255   0.415728   0.154585
   42  O  3  Y    0.000000  -0.328246   0.000000   0.000000   0.000000
   43  O  3  Z    0.183661   0.000000  -0.264401   0.159301  -0.074256
   44  O  3 XX   -0.002600   0.000000  -0.000410  -0.015305  -0.039493
   45  O  3 YY    0.001286   0.000000   0.000883   0.006129   0.019923
   46  O  3 ZZ    0.001314   0.000000  -0.000473   0.009176   0.019570
   47  O  3 XY    0.000000   0.000121   0.000000   0.000000   0.000000
   48  O  3 XZ   -0.001904   0.000000  -0.000970   0.003467   0.014081
   49  O  3 YZ    0.000000  -0.000658   0.000000   0.000000   0.000000

                     21         22         23         24         25
                    0.3644     0.4019     0.4367     0.5121     0.5124
                     B2         A1         B1         B2         A1  
    1  S  1  S    0.000000  -0.111094   0.000000   0.000000  -0.001924
    2  S  1  S    0.000000  -0.373988   0.000000   0.000000   0.000565
    3  S  1  S    0.000000  -1.675278   0.000000   0.000000  -0.020471
    4  S  1  S    0.000000   2.132864   0.000000   0.000000  -0.029821
    5  S  1  X    0.000000   0.000000   0.327712   0.000000   0.000000
    6  S  1  Y    0.287986   0.000000   0.000000   0.042835   0.000000
    7  S  1  Z    0.000000  -0.098836   0.000000   0.000000  -0.042867
    8  S  1  X    0.000000   0.000000  -1.185405   0.000000   0.000000
    9  S  1  Y   -1.118793   0.000000   0.000000  -0.164307   0.000000
   10  S  1  Z    0.000000   0.392025   0.000000   0.000000   0.163656
   11  S  1  X    0.000000   0.000000   1.231586   0.000000   0.000000
   12  S  1  Y    1.269703   0.000000   0.000000   0.149777   0.000000
   13  S  1  Z    0.000000  -0.359509   0.000000   0.000000  -0.157886
   14  S  1 XX    0.000000   0.011967   0.000000   0.000000  -0.007349
   15  S  1 YY    0.000000  -0.049771   0.000000   0.000000   0.852190
   16  S  1 ZZ    0.000000   0.037804   0.000000   0.000000  -0.844841
   17  S  1 XY    0.000000   0.000000   0.000000   0.000000   0.000000
   18  S  1 XZ    0.000000   0.000000   0.242469   0.000000   0.000000
   19  S  1 YZ   -0.130809   0.000000   0.000000   0.980236   0.000000
   20  O  2  S    0.000000   0.012568   0.006324   0.000000  -0.002185
   21  O  2  S    0.000000  -0.016859  -0.078484   0.000000   0.004558
   22  O  2  S    0.000000  -0.323582   0.400492   0.000000   0.026008
   23  O  2  X    0.000000   0.158871  -0.335908   0.000000   0.014341
   24  O  2  Y   -0.076661   0.000000   0.000000  -0.094967   0.000000
   25  O  2  Z    0.000000  -0.028936   0.122894   0.000000   0.095213
   26  O  2  X    0.000000  -0.180760  -0.024083   0.000000   0.020628
   27  O  2  Y   -0.108680   0.000000   0.000000   0.019642   0.000000
   28  O  2  Z    0.000000   0.068579   0.000802   0.000000  -0.024056
   29  O  2 XX    0.000000  -0.051373   0.047889   0.000000  -0.000874
   30  O  2 YY    0.000000   0.027585  -0.029102   0.000000   0.028746
   31  O  2 ZZ    0.000000   0.023788  -0.018787   0.000000  -0.027872
   32  O  2 XY   -0.027601   0.000000   0.000000   0.013056   0.000000
   33  O  2 XZ    0.000000   0.028286  -0.033287   0.000000  -0.013261
   34  O  2 YZ    0.000979   0.000000   0.000000   0.032711   0.000000
   35  O  3  S    0.000000   0.012568  -0.006324   0.000000  -0.002185
   36  O  3  S    0.000000  -0.016859   0.078484   0.000000   0.004558
   37  O  3  S    0.000000  -0.323582  -0.400492   0.000000   0.026008
   38  O  3  X    0.000000  -0.158871  -0.335908   0.000000  -0.014341
   39  O  3  Y   -0.076661   0.000000   0.000000  -0.094967   0.000000
   40  O  3  Z    0.000000  -0.028936  -0.122894   0.000000   0.095213
   41  O  3  X    0.000000   0.180760  -0.024083   0.000000  -0.020628
   42  O  3  Y   -0.108680   0.000000   0.000000   0.019642   0.000000
   43  O  3  Z    0.000000   0.068579  -0.000802   0.000000  -0.024056
   44  O  3 XX    0.000000  -0.051373  -0.047889   0.000000  -0.000874
   45  O  3 YY    0.000000   0.027585   0.029102   0.000000   0.028746
   46  O  3 ZZ    0.000000   0.023788   0.018787   0.000000  -0.027872
   47  O  3 XY    0.027601   0.000000   0.000000  -0.013056   0.000000
   48  O  3 XZ    0.000000  -0.028286  -0.033287   0.000000   0.013261
   49  O  3 YZ    0.000979   0.000000   0.000000   0.032711   0.000000

                     26         27         28         29         30
                    0.5506     0.5951     0.6613     0.7442     0.7655
                     A2         B1         A1         B1         A2  
    1  S  1  S    0.000000   0.000000   0.024414   0.000000   0.000000
    2  S  1  S    0.000000   0.000000   0.041286   0.000000   0.000000
    3  S  1  S    0.000000   0.000000   0.338302   0.000000   0.000000
    4  S  1  S    0.000000   0.000000   1.145246   0.000000   0.000000
    5  S  1  X    0.000000  -0.128426   0.000000  -0.043189   0.000000
    6  S  1  Y    0.000000   0.000000   0.000000   0.000000   0.000000
    7  S  1  Z    0.000000   0.000000  -0.039374   0.000000   0.000000
    8  S  1  X    0.000000   0.562703   0.000000   0.401008   0.000000
    9  S  1  Y    0.000000   0.000000   0.000000   0.000000   0.000000
   10  S  1  Z    0.000000   0.000000   0.201145   0.000000   0.000000
   11  S  1  X    0.000000   0.256093   0.000000  -0.113197   0.000000
   12  S  1  Y    0.000000   0.000000   0.000000   0.000000   0.000000
   13  S  1  Z    0.000000   0.000000   0.043041   0.000000   0.000000
   14  S  1 XX    0.000000   0.000000   0.654711   0.000000   0.000000
   15  S  1 YY    0.000000   0.000000  -0.333985   0.000000   0.000000
   16  S  1 ZZ    0.000000   0.000000  -0.320726   0.000000   0.000000
   17  S  1 XY    0.840298   0.000000   0.000000   0.000000   0.568685
   18  S  1 XZ    0.000000   0.781206   0.000000   0.202918   0.000000
   19  S  1 YZ    0.000000   0.000000   0.000000   0.000000   0.000000
   20  O  2  S    0.000000  -0.042170   0.061084  -0.013649   0.000000
   21  O  2  S    0.000000   0.139200  -0.164507  -0.006446   0.000000
   22  O  2  S    0.000000   0.271255  -0.476520   0.102689   0.000000
   23  O  2  X    0.000000   0.054359   0.342586  -0.456478   0.000000
   24  O  2  Y    0.406268   0.000000   0.000000   0.000000  -0.516652
   25  O  2  Z    0.000000   0.358065  -0.019969  -0.373492   0.000000
   26  O  2  X    0.000000   0.448765  -1.123463   0.773281   0.000000
   27  O  2  Y   -0.136427   0.000000   0.000000   0.000000   0.784791
   28  O  2  Z    0.000000  -0.243824   0.181524   0.449202   0.000000
   29  O  2 XX    0.000000  -0.032965   0.001081  -0.036473   0.000000
   30  O  2 YY    0.000000   0.004500  -0.002075   0.016144   0.000000
   31  O  2 ZZ    0.000000   0.028465   0.000994   0.020329   0.000000
   32  O  2 XY   -0.064722   0.000000   0.000000   0.000000  -0.066426
   33  O  2 XZ    0.000000  -0.048639  -0.005420  -0.006821   0.000000
   34  O  2 YZ    0.016491   0.000000   0.000000   0.000000   0.015417
   35  O  3  S    0.000000   0.042170   0.061084   0.013649   0.000000
   36  O  3  S    0.000000  -0.139200  -0.164507   0.006446   0.000000
   37  O  3  S    0.000000  -0.271255  -0.476520  -0.102689   0.000000
   38  O  3  X    0.000000   0.054359  -0.342586  -0.456478   0.000000
   39  O  3  Y   -0.406268   0.000000   0.000000   0.000000   0.516652
   40  O  3  Z    0.000000  -0.358065  -0.019969   0.373492   0.000000
   41  O  3  X    0.000000   0.448765   1.123463   0.773281   0.000000
   42  O  3  Y    0.136427   0.000000   0.000000   0.000000  -0.784791
   43  O  3  Z    0.000000   0.243824   0.181524  -0.449202   0.000000
   44  O  3 XX    0.000000   0.032965   0.001081   0.036473   0.000000
   45  O  3 YY    0.000000  -0.004500  -0.002075  -0.016144   0.000000
   46  O  3 ZZ    0.000000  -0.028465   0.000994  -0.020329   0.000000
   47  O  3 XY   -0.064722   0.000000   0.000000   0.000000  -0.066426
   48  O  3 XZ    0.000000  -0.048639   0.005420  -0.006821   0.000000
   49  O  3 YZ   -0.016491   0.000000   0.000000   0.000000  -0.015417

                     31         32         33         34         35
                    0.8034     0.8460     0.8504     1.1673     1.5164
                     B1         A1         B2         A1         A1  
    1  S  1  S    0.000000   0.004355   0.000000  -0.019647   0.010060
    2  S  1  S    0.000000   0.026621   0.000000  -0.243361   0.124434
    3  S  1  S    0.000000   0.083590   0.000000  -0.529695   0.243075
    4  S  1  S    0.000000  -0.057976   0.000000   1.055841  -1.738412
    5  S  1  X   -0.006005   0.000000   0.000000   0.000000   0.000000
    6  S  1  Y    0.000000   0.000000  -0.023685   0.000000   0.000000
    7  S  1  Z    0.000000  -0.023901   0.000000  -0.032599   0.003782
    8  S  1  X   -0.187975   0.000000   0.000000   0.000000   0.000000
    9  S  1  Y    0.000000   0.000000   0.097876   0.000000   0.000000
   10  S  1  Z    0.000000   0.103741   0.000000   0.099205  -0.057582
   11  S  1  X    0.062126   0.000000   0.000000   0.000000   0.000000
   12  S  1  Y    0.000000   0.000000  -0.714296   0.000000   0.000000
   13  S  1  Z    0.000000  -0.706552   0.000000   0.051147  -0.298253
   14  S  1 XX    0.000000   0.065937   0.000000   1.099913  -0.281040
   15  S  1 YY    0.000000   0.076594   0.000000  -0.573322   0.158262
   16  S  1 ZZ    0.000000  -0.142530   0.000000  -0.526591   0.122778
   17  S  1 XY    0.000000   0.000000   0.000000   0.000000   0.000000
   18  S  1 XZ    0.591438   0.000000   0.000000   0.000000   0.000000
   19  S  1 YZ    0.000000   0.000000  -0.125795   0.000000   0.000000
   20  O  2  S    0.003660  -0.005186   0.000000   0.038776   0.010143
   21  O  2  S   -0.030853   0.080721   0.000000  -0.067018  -1.188300
   22  O  2  S    0.053319  -0.032200   0.000000  -0.508810   1.759893
   23  O  2  X    0.401388  -0.095286   0.000000  -0.556157  -0.072514
   24  O  2  Y    0.000000   0.000000  -0.627416   0.000000   0.000000
   25  O  2  Z   -0.368274  -0.615537   0.000000   0.127423  -0.046358
   26  O  2  X   -0.452050   0.119464   0.000000   0.088705   0.665866
   27  O  2  Y    0.000000   0.000000   0.946656   0.000000   0.000000
   28  O  2  Z    0.613841   0.930947   0.000000   0.020708   0.028320
   29  O  2 XX    0.000928  -0.002318   0.000000  -0.002211  -0.162893
   30  O  2 YY   -0.016247   0.001638   0.000000  -0.013795   0.083766
   31  O  2 ZZ    0.015319   0.000680   0.000000   0.016007   0.079127
   32  O  2 XY    0.000000   0.000000  -0.034048   0.000000   0.000000
   33  O  2 XZ   -0.078045  -0.034664   0.000000  -0.068333   0.013242
   34  O  2 YZ    0.000000   0.000000  -0.000794   0.000000   0.000000
   35  O  3  S   -0.003660  -0.005186   0.000000   0.038776   0.010143
   36  O  3  S    0.030853   0.080721   0.000000  -0.067018  -1.188300
   37  O  3  S   -0.053319  -0.032200   0.000000  -0.508810   1.759893
   38  O  3  X    0.401388   0.095286   0.000000   0.556157   0.072514
   39  O  3  Y    0.000000   0.000000  -0.627416   0.000000   0.000000
   40  O  3  Z    0.368274  -0.615537   0.000000   0.127423  -0.046358
   41  O  3  X   -0.452050  -0.119464   0.000000  -0.088705  -0.665866
   42  O  3  Y    0.000000   0.000000   0.946656   0.000000   0.000000
   43  O  3  Z   -0.613841   0.930947   0.000000   0.020708   0.028320
   44  O  3 XX   -0.000928  -0.002318   0.000000  -0.002211  -0.162893
   45  O  3 YY    0.016247   0.001638   0.000000  -0.013795   0.083766
   46  O  3 ZZ   -0.015319   0.000680   0.000000   0.016007   0.079127
   47  O  3 XY    0.000000   0.000000   0.034048   0.000000   0.000000
   48  O  3 XZ   -0.078045   0.034664   0.000000   0.068333  -0.013242
   49  O  3 YZ    0.000000   0.000000  -0.000794   0.000000   0.000000

                     36         37         38         39         40
                    1.8224     2.0519     2.0519     2.0710     2.0736
                     B1         A2         B1         B2         A1  
    1  S  1  S    0.000000   0.000000   0.000000   0.000000   0.001439
    2  S  1  S    0.000000   0.000000   0.000000   0.000000   0.006674
    3  S  1  S    0.000000   0.000000   0.000000   0.000000   0.025693
    4  S  1  S    0.000000   0.000000   0.000000   0.000000  -0.009256
    5  S  1  X   -0.020433   0.000000   0.000391   0.000000   0.000000
    6  S  1  Y    0.000000   0.000000   0.000000  -0.020813   0.000000
    7  S  1  Z    0.000000   0.000000   0.000000   0.000000  -0.009265
    8  S  1  X    0.249517   0.000000  -0.002151   0.000000   0.000000
    9  S  1  Y    0.000000   0.000000   0.000000   0.068745   0.000000
   10  S  1  Z    0.000000   0.000000   0.000000   0.000000   0.033141
   11  S  1  X    1.729615   0.000000   0.016055   0.000000   0.000000
   12  S  1  Y    0.000000   0.000000   0.000000   0.027826   0.000000
   13  S  1  Z    0.000000   0.000000   0.000000   0.000000   0.005131
   14  S  1 XX    0.000000   0.000000   0.000000   0.000000  -0.026406
   15  S  1 YY    0.000000   0.000000   0.000000   0.000000   0.104808
   16  S  1 ZZ    0.000000   0.000000   0.000000   0.000000  -0.078401
   17  S  1 XY    0.000000   0.016939   0.000000   0.000000   0.000000
   18  S  1 XZ    0.130494   0.000000  -0.016683   0.000000   0.000000
   19  S  1 YZ    0.000000   0.000000   0.000000  -0.082608   0.000000
   20  O  2  S   -0.006395   0.000000   0.000191   0.000000  -0.000969
   21  O  2  S   -1.280416   0.000000  -0.009788   0.000000   0.018047
   22  O  2  S    2.291972   0.000000   0.015694   0.000000  -0.011593
   23  O  2  X   -0.008362   0.000000  -0.000307   0.000000   0.014781
   24  O  2  Y    0.000000  -0.003098   0.000000   0.019258   0.000000
   25  O  2  Z    0.058865   0.000000   0.003932   0.000000   0.003678
   26  O  2  X    0.511548   0.000000   0.000564   0.000000  -0.014872
   27  O  2  Y    0.000000   0.005568   0.000000  -0.032989   0.000000
   28  O  2  Z   -0.224438   0.000000  -0.007216   0.000000  -0.006901
   29  O  2 XX   -0.221627   0.000000  -0.041090   0.000000  -0.031215
   30  O  2 YY    0.115298   0.000000   0.613649   0.000000  -0.596120
   31  O  2 ZZ    0.106329   0.000000  -0.572560   0.000000   0.627335
   32  O  2 XY    0.000000   0.176394   0.000000  -0.123085   0.000000
   33  O  2 XZ    0.090662   0.000000  -0.171371   0.000000   0.031169
   34  O  2 YZ    0.000000   0.684823   0.000000   0.697750   0.000000
   35  O  3  S    0.006395   0.000000  -0.000191   0.000000  -0.000969
   36  O  3  S    1.280416   0.000000   0.009788   0.000000   0.018047
   37  O  3  S   -2.291972   0.000000  -0.015694   0.000000  -0.011593
   38  O  3  X   -0.008362   0.000000  -0.000307   0.000000  -0.014781
   39  O  3  Y    0.000000   0.003098   0.000000   0.019258   0.000000
   40  O  3  Z   -0.058865   0.000000  -0.003932   0.000000   0.003678
   41  O  3  X    0.511548   0.000000   0.000564   0.000000   0.014872
   42  O  3  Y    0.000000  -0.005568   0.000000  -0.032989   0.000000
   43  O  3  Z    0.224438   0.000000   0.007216   0.000000  -0.006901
   44  O  3 XX    0.221627   0.000000   0.041090   0.000000  -0.031215
   45  O  3 YY   -0.115298   0.000000  -0.613649   0.000000  -0.596120
   46  O  3 ZZ   -0.106329   0.000000   0.572560   0.000000   0.627335
   47  O  3 XY    0.000000   0.176394   0.000000   0.123085   0.000000
   48  O  3 XZ    0.090662   0.000000  -0.171371   0.000000  -0.031169
   49  O  3 YZ    0.000000  -0.684823   0.000000   0.697750   0.000000

                     41         42         43         44         45
                    2.1044     2.1411     2.3356     2.3650     2.7417
                     B2         A1         B1         A2         B1  
    1  S  1  S    0.000000  -0.006512   0.000000   0.000000   0.000000
    2  S  1  S    0.000000  -0.020288   0.000000   0.000000   0.000000
    3  S  1  S    0.000000  -0.105983   0.000000   0.000000   0.000000
    4  S  1  S    0.000000  -0.092219   0.000000   0.000000   0.000000
    5  S  1  X    0.000000   0.000000   0.035738   0.000000  -0.217059
    6  S  1  Y    0.056087   0.000000   0.000000   0.000000   0.000000
    7  S  1  Z    0.000000   0.060138   0.000000   0.000000   0.000000
    8  S  1  X    0.000000   0.000000  -0.201143   0.000000   1.193506
    9  S  1  Y   -0.182423   0.000000   0.000000   0.000000   0.000000
   10  S  1  Z    0.000000  -0.208681   0.000000   0.000000   0.000000
   11  S  1  X    0.000000   0.000000  -0.071454   0.000000   0.522801
   12  S  1  Y   -0.113630   0.000000   0.000000   0.000000   0.000000
   13  S  1  Z    0.000000  -0.138038   0.000000   0.000000   0.000000
   14  S  1 XX    0.000000   0.124921   0.000000   0.000000   0.000000
   15  S  1 YY    0.000000   0.028458   0.000000   0.000000   0.000000
   16  S  1 ZZ    0.000000  -0.153379   0.000000   0.000000   0.000000
   17  S  1 XY    0.000000   0.000000   0.000000   0.541163   0.000000
   18  S  1 XZ    0.000000   0.000000   0.487371   0.000000   0.327680
   19  S  1 YZ   -0.123560   0.000000   0.000000   0.000000   0.000000
   20  O  2  S    0.000000   0.002549  -0.000067   0.000000  -0.027437
   21  O  2  S    0.000000  -0.147249   0.146663   0.000000  -0.627081
   22  O  2  S    0.000000   0.175823  -0.200197   0.000000   1.279230
   23  O  2  X    0.000000  -0.077948   0.048966   0.000000  -0.008606
   24  O  2  Y   -0.062815   0.000000   0.000000  -0.032361   0.000000
   25  O  2  Z    0.000000  -0.053439  -0.044495   0.000000   0.014242
   26  O  2  X    0.000000   0.138216  -0.089133   0.000000   0.683219
   27  O  2  Y    0.127718   0.000000   0.000000   0.170965   0.000000
   28  O  2  Z    0.000000   0.128234   0.180504   0.000000  -0.106166
   29  O  2 XX    0.000000   0.305242   0.112866   0.000000   0.778995
   30  O  2 YY    0.000000  -0.139241   0.100346   0.000000  -0.374577
   31  O  2 ZZ    0.000000  -0.166002  -0.213212   0.000000  -0.404418
   32  O  2 XY    0.709230   0.000000   0.000000   0.726544   0.000000
   33  O  2 XZ    0.000000   0.649293   0.708123   0.000000  -0.099896
   34  O  2 YZ    0.119296   0.000000   0.000000  -0.183377   0.000000
   35  O  3  S    0.000000   0.002549   0.000067   0.000000   0.027437
   36  O  3  S    0.000000  -0.147249  -0.146663   0.000000   0.627081
   37  O  3  S    0.000000   0.175823   0.200197   0.000000  -1.279230
   38  O  3  X    0.000000   0.077948   0.048966   0.000000  -0.008606
   39  O  3  Y   -0.062815   0.000000   0.000000   0.032361   0.000000
   40  O  3  Z    0.000000  -0.053439   0.044495   0.000000  -0.014242
   41  O  3  X    0.000000  -0.138216  -0.089133   0.000000   0.683219
   42  O  3  Y    0.127718   0.000000   0.000000  -0.170965   0.000000
   43  O  3  Z    0.000000   0.128234  -0.180504   0.000000   0.106166
   44  O  3 XX    0.000000   0.305242  -0.112866   0.000000  -0.778995
   45  O  3 YY    0.000000  -0.139241  -0.100346   0.000000   0.374577
   46  O  3 ZZ    0.000000  -0.166002   0.213212   0.000000   0.404418
   47  O  3 XY   -0.709230   0.000000   0.000000   0.726544   0.000000
   48  O  3 XZ    0.000000  -0.649293   0.708123   0.000000  -0.099896
   49  O  3 YZ    0.119296   0.000000   0.000000   0.183377   0.000000

                     46
                    2.8519
                     A1  
    1  S  1  S    0.043961
    2  S  1  S   -0.026853
    3  S  1  S    0.510442
    4  S  1  S    1.356900
    5  S  1  X    0.000000
    6  S  1  Y    0.000000
    7  S  1  Z   -0.038233
    8  S  1  X    0.000000
    9  S  1  Y    0.000000
   10  S  1  Z    0.220297
   11  S  1  X    0.000000
   12  S  1  Y    0.000000
   13  S  1  Z    0.083363
   14  S  1 XX    1.008041
   15  S  1 YY   -0.515459
   16  S  1 ZZ   -0.492582
   17  S  1 XY    0.000000
   18  S  1 XZ    0.000000
   19  S  1 YZ    0.000000
   20  O  2  S    0.038809
   21  O  2  S    0.541756
   22  O  2  S   -1.338244
   23  O  2  X   -0.098479
   24  O  2  Y    0.000000
   25  O  2  Z    0.027414
   26  O  2  X   -0.784142
   27  O  2  Y    0.000000
   28  O  2  Z    0.154727
   29  O  2 XX   -0.782203
   30  O  2 YY    0.434115
   31  O  2 ZZ    0.348088
   32  O  2 XY    0.000000
   33  O  2 XZ    0.371083
   34  O  2 YZ    0.000000
   35  O  3  S    0.038809
   36  O  3  S    0.541756
   37  O  3  S   -1.338244
   38  O  3  X    0.098479
   39  O  3  Y    0.000000
   40  O  3  Z    0.027414
   41  O  3  X    0.784142
   42  O  3  Y    0.000000
   43  O  3  Z    0.154727
   44  O  3 XX   -0.782203
   45  O  3 YY    0.434115
   46  O  3 ZZ    0.348088
   47  O  3 XY    0.000000
   48  O  3 XZ   -0.371083
   49  O  3 YZ    0.000000
 ...... END OF RHF CALCULATION ......
 STEP CPU TIME =     4.80 TOTAL CPU TIME =        5.0 (    0.1 MIN)
 TOTAL WALL CLOCK TIME=        5.0 SECONDS, CPU UTILIZATION IS  99.80%

     ---------------------------------------------------------------------
     PROPERTIES FOR THE PBE      DFT FUNCTIONAL (RHF  TYPE) DENSITY MATRIX
     ---------------------------------------------------------------------

          -----------------
          ENERGY COMPONENTS
          -----------------

         WAVEFUNCTION NORMALIZATION =       1.0000000000

                ONE ELECTRON ENERGY =    -957.7105802497
                TWO ELECTRON ENERGY =     307.7349552104
           NUCLEAR REPULSION ENERGY =     101.7761846443
                                      ------------------
                       TOTAL ENERGY =    -548.1994403950

 ELECTRON-ELECTRON POTENTIAL ENERGY =     307.7349552104
  NUCLEUS-ELECTRON POTENTIAL ENERGY =   -1505.2133776563
   NUCLEUS-NUCLEUS POTENTIAL ENERGY =     101.7761846443
                                      ------------------
             TOTAL POTENTIAL ENERGY =   -1095.7022378016
               TOTAL KINETIC ENERGY =     547.5027974066
                 VIRIAL RATIO (V/T) =       2.0012724008

          ---------------------------------------
          MULLIKEN AND LOWDIN POPULATION ANALYSES
          ---------------------------------------

     ATOMIC MULLIKEN POPULATION IN EACH MOLECULAR ORBITAL

                      1          2          3          4          5

                  2.000000   2.000000   2.000000   2.000000   2.000000

    1             2.000028   0.002088   0.000841   2.001826   1.999547
    2            -0.000014   0.998956   0.999580  -0.000913   0.000227
    3            -0.000014   0.998956   0.999580  -0.000913   0.000227

                      6          7          8          9         10

                  2.000000   2.000000   2.000000   2.000000   2.000000

    1             1.999996   1.999958   0.688623   0.317033   0.827202
    2             0.000002   0.000021   0.655688   0.841483   0.586399
    3             0.000002   0.000021   0.655688   0.841483   0.586399

                     11         12         13         14         15

                  2.000000   2.000000   2.000000   2.000000   2.000000

    1             0.369017   0.998318   0.989769   0.108048   0.112998
    2             0.815491   0.500841   0.505115   0.945976   0.943501
    3             0.815491   0.500841   0.505115   0.945976   0.943501

                     16

                  2.000000

    1             0.894302
    2             0.552849
    3             0.552849

               ----- POPULATIONS IN EACH AO -----
                             MULLIKEN      LOWDIN
              1  S  1  S      2.00023     1.99590
              2  S  1  S      2.01047     1.96880
              3  S  1  S      0.97008     0.60348
              4  S  1  S      1.02821     0.59990
              5  S  1  X      1.99690     1.95413
              6  S  1  Y      1.99626     1.95366
              7  S  1  Z      1.99664     1.95722
              8  S  1  X      0.67664     0.60456
              9  S  1  Y      0.62318     0.58946
             10  S  1  Z      0.71071     0.68071
             11  S  1  X      0.01340     0.24410
             12  S  1  Y      0.37524     0.43266
             13  S  1  Z      0.38569     0.45506
             14  S  1 XX      0.07786     0.36059
             15  S  1 YY      0.22266     0.32642
             16  S  1 ZZ      0.10805     0.32191
             17  S  1 XY      0.11373     0.13111
             18  S  1 XZ      0.00363     0.13808
             19  S  1 YZ      0.00000     0.00342
             20  O  2  S      1.99810     1.98078
             21  O  2  S      0.84578     0.66169
             22  O  2  S      1.04163     0.55663
             23  O  2  X      0.95707     0.92124
             24  O  2  Y      0.86462     0.82490
             25  O  2  Z      0.98675     0.95069
             26  O  2  X      0.43358     0.54440
             27  O  2  Y      0.57627     0.61267
             28  O  2  Z      0.62195     0.65660
             29  O  2 XX      0.00213     0.21026
             30  O  2 YY      0.00574     0.20352
             31  O  2 ZZ      0.00581     0.20101
             32  O  2 XY      0.00566     0.00711
             33  O  2 XZ      0.00012     0.00772
             34  O  2 YZ      0.00000     0.00015
             35  O  3  S      1.99810     1.98078
             36  O  3  S      0.84578     0.66169
             37  O  3  S      1.04163     0.55663
             38  O  3  X      0.95707     0.92124
             39  O  3  Y      0.86462     0.82490
             40  O  3  Z      0.98675     0.95069
             41  O  3  X      0.43358     0.54440
             42  O  3  Y      0.57627     0.61267
             43  O  3  Z      0.62195     0.65660
             44  O  3 XX      0.00213     0.21026
             45  O  3 YY      0.00574     0.20352
             46  O  3 ZZ      0.00581     0.20101
             47  O  3 XY      0.00566     0.00711
             48  O  3 XZ      0.00012     0.00772
             49  O  3 YZ      0.00000     0.00015

          ----- MULLIKEN ATOMIC OVERLAP POPULATIONS -----
          (OFF-DIAGONAL ELEMENTS NEED TO BE MULTIPLIED BY 2)

             1           2           3

    1   14.9850357
    2    0.1622803   8.1718084
    3    0.1622803   0.0111131   8.1718084

          TOTAL MULLIKEN AND LOWDIN ATOMIC POPULATIONS
       ATOM         MULL.POP.    CHARGE          LOW.POP.     CHARGE
    1 S            15.309596    0.690404        15.321190    0.678810
    2 O             8.345202   -0.345202         8.339405   -0.339405
    3 O             8.345202   -0.345202         8.339405   -0.339405

          MULLIKEN SPHERICAL HARMONIC POPULATIONS
       ATOM           S       P       D      F      G      H      I    TOTAL
    1 S             6.01    8.77    0.53   0.00   0.00   0.00   0.00   15.31
    2 O             3.89    4.44    0.02   0.00   0.00   0.00   0.00    8.35
    3 O             3.89    4.44    0.02   0.00   0.00   0.00   0.00    8.35

          -------------------------------
          BOND ORDER AND VALENCE ANALYSIS     BOND ORDER THRESHOLD=0.050
          -------------------------------

                   BOND                       BOND                       BOND
  ATOM PAIR DIST  ORDER      ATOM PAIR DIST  ORDER      ATOM PAIR DIST  ORDER
    1   2  1.500  1.816        1   3  1.500  1.816        2   3  2.954  0.360

                       TOTAL       BONDED        FREE
      ATOM            VALENCE     VALENCE     VALENCE
    1 S                 3.631       3.631       0.000
    2 O                 2.175       2.175       0.000
    3 O                 2.175       2.175       0.000

          ---------------------
          ELECTROSTATIC MOMENTS
          ---------------------

 POINT   1           X           Y           Z (BOHR)    CHARGE
                 0.000000    0.000000    0.000000        0.00 (A.U.)
         DX          DY          DZ         /D/  (DEBYE)
     0.000000    0.000000   -0.087814    0.087814
 ...... END OF PROPERTY EVALUATION ......
 STEP CPU TIME =     0.01 TOTAL CPU TIME =        5.0 (    0.1 MIN)
 TOTAL WALL CLOCK TIME=        5.0 SECONDS, CPU UTILIZATION IS  99.80%
               580000  WORDS OF DYNAMIC MEMORY USED
 EXECUTION OF GAMESS TERMINATED NORMALLY Thu Feb 26 00:17:26 2015
 DDI: 263624 bytes (0.3 MB / 0 MWords) used by master data server.

 ----------------------------------------
 CPU timing information for all processes
 ========================================
 0: 4.971 + 0.29 = 5.01
 ----------------------------------------
 ddikick.x: exited gracefully.
----- accounting info -----
Files used on the master node dftfe.crc.nd.edu were:
-rw-r--r-- 1 pmehta1 campus   37475 Feb 26 00:17 /tmp/gamess.dat
-rw-r--r-- 1 pmehta1 campus     142 Feb 26 00:17 /tmp/gamess.F05
-rw-r--r-- 1 pmehta1 campus 2160288 Feb 26 00:17 /tmp/gamess.F08
-rw-r--r-- 1 pmehta1 campus 1220440 Feb 26 00:17 /tmp/gamess.F10
Thu Feb 26 00:17:30 EST 2015
0.235u 0.183s 0:09.09 4.5%	0+0k 0+104io 0pf+0w
