----- GAMESS execution script 'rungms' -----
This job is running on host dftfe.crc.nd.edu
under operating system Linux at Thu Feb 26 00:12:16 EST 2015
Available scratch disk space (Kbyte units) at beginning of the job is
Filesystem     1K-blocks     Used Available Use% Mounted on
/dev/sda2      147771864 22809836 117455596  17% /
GAMESS temporary binary files will be written to /tmp
GAMESS supplementary output files will be written to /tmp
Copying input file gamess.inp to your run's scratch directory...

 Distributed Data Interface kickoff program.
 Initiating 1 compute processes on 1 nodes to run the following command:
 /opt/crc/gamess/2012R1/gamess/gamess.00.x gamess 

          ******************************************************
          *         GAMESS VERSION =  1 MAY 2012 (R1)          *
          *             FROM IOWA STATE UNIVERSITY             *
          * M.W.SCHMIDT, K.K.BALDRIDGE, J.A.BOATZ, S.T.ELBERT, *
          *   M.S.GORDON, J.H.JENSEN, S.KOSEKI, N.MATSUNAGA,   *
          *          K.A.NGUYEN, S.J.SU, T.L.WINDUS,           *
          *       TOGETHER WITH M.DUPUIS, J.A.MONTGOMERY       *
          *         J.COMPUT.CHEM.  14, 1347-1363(1993)        *
          **************** 64 BIT LINUX VERSION ****************

  SINCE 1993, STUDENTS AND POSTDOCS WORKING AT IOWA STATE UNIVERSITY
  AND ALSO IN THEIR VARIOUS JOBS AFTER LEAVING ISU HAVE MADE IMPORTANT
  CONTRIBUTIONS TO THE CODE:
     IVANA ADAMOVIC, CHRISTINE AIKENS, YURI ALEXEEV, POOJA ARORA,
     ANDREY ASADCHEV, ROB BELL, PRADIPTA BANDYOPADHYAY, JONATHAN BENTZ,
     BRETT BODE, GALINA CHABAN, WEI CHEN, CHEOL HO CHOI, PAUL DAY,
     ALBERT DEFUSCO, TIM DUDLEY, DMITRI FEDOROV, GRAHAM FLETCHER,
     MARK FREITAG, KURT GLAESEMANN, DAN KEMP, GRANT MERRILL,
     NORIYUKI MINEZAWA, JONATHAN MULLIN, TAKESHI NAGATA,
     SEAN NEDD, HEATHER NETZLOFF, BOSILJKA NJEGIC, RYAN OLSON, MIKE PAK,
     JIM SHOEMAKER, LYUDMILA SLIPCHENKO, SAROM SOK, JIE SONG,
     TETSUYA TAKETSUGU, SIMON WEBB, SOOHAENG YOO, FEDERICO ZAHARIEV

  ADDITIONAL CODE HAS BEEN PROVIDED BY COLLABORATORS IN OTHER GROUPS:
     IOWA STATE UNIVERSITY:
          JOE IVANIC, LAIMUTIS BYTAUTAS, KLAUS RUEDENBERG
     UNIVERSITY OF TOKYO: KIMIHIKO HIRAO, TAKAHITO NAKAJIMA,
          TAKAO TSUNEDA, MUNEAKI KAMIYA, SUSUMU YANAGISAWA,
          KIYOSHI YAGI, MAHITO CHIBA, SEIKEN TOKURA, NAOAKI KAWAKAMI
     UNIVERSITY OF AARHUS: FRANK JENSEN
     UNIVERSITY OF IOWA: VISVALDAS KAIRYS, HUI LI
     NATIONAL INST. OF STANDARDS AND TECHNOLOGY: WALT STEVENS, DAVID GARMER
     UNIVERSITY OF PISA: BENEDETTA MENNUCCI, JACOPO TOMASI
     UNIVERSITY OF MEMPHIS: HENRY KURTZ, PRAKASHAN KORAMBATH
     UNIVERSITY OF ALBERTA: TOBY ZENG, MARIUSZ KLOBUKOWSKI
     UNIVERSITY OF NEW ENGLAND: MARK SPACKMAN
     MIE UNIVERSITY: HIROAKI UMEDA
     MICHIGAN STATE UNIVERSITY:
          KAROL KOWALSKI, MARTA WLOCH, JEFFREY GOUR, JESSE LUTZ, PIOTR PIECUCH
     UNIVERSITY OF SILESIA: MONIKA MUSIAL, STANISLAW KUCHARSKI
     FACULTES UNIVERSITAIRES NOTRE-DAME DE LA PAIX:
          OLIVIER QUINET, BENOIT CHAMPAGNE
     UNIVERSITY OF CALIFORNIA - SANTA BARBARA: BERNARD KIRTMAN
     INSTITUTE FOR MOLECULAR SCIENCE:
          KAZUYA ISHIMURA, MICHIO KATOUDA, AND SHIGERU NAGASE
     UNIVERSITY OF NOTRE DAME: DAN CHIPMAN
     KYUSHU UNIVERSITY:
          HARUYUKI NAKANO,
          FENG LONG GU, JACEK KORCHOWIEC, MARCIN MAKOWSKI, AND YURIKO AOKI,
          HIROTOSHI MORI AND EISAKU MIYOSHI
     PENNSYLVANIA STATE UNIVERSITY:
          TZVETELIN IORDANOV, CHET SWALINA, JONATHAN SKONE,
          SHARON HAMMES-SCHIFFER
     WASEDA UNIVERSITY:
          MASATO KOBAYASHI, TOMOKO AKAMA, TSUGUKI TOUMA,
          TAKESHI YOSHIKAWA, YASUHIRO IKABATA, HIROMI NAKAI
     UNIVERSITY OF NEBRASKA:
          PEIFENG SU, DEJUN SI, NANDUN THELLAMUREGE, YALI WANG, HUI LI
     UNIVERSITY OF ZURICH:
          ROBERTO PEVERATI, KIM BALDRIDGE
     N. COPERNICUS UNIVERSITY AND JACKSON STATE UNIVERSITY:
          MARIA BARYSZ

 EXECUTION OF GAMESS BEGUN Thu Feb 26 00:12:16 2015

            ECHO OF THE FIRST FEW INPUT CARDS -
 INPUT CARD> $BASIS GBASIS=PC1 $END                                                         
 INPUT CARD> $CONTRL COORD=ZMT ISPHER=1 RUNTYP=ENERGY DFTTYP=PBE $END                       
 INPUT CARD>                                                                                
 INPUT CARD> $DATA                                                                          
 INPUT CARD>Title                                                                           
 INPUT CARD>Cnv 2                                                                           
 INPUT CARD>                                                                                
 INPUT CARD>S                                                                               
 INPUT CARD>O 1 1.10                                                                        
 INPUT CARD>O 1 1.10 2 170.0                                                                
 INPUT CARD> $END                                                                           
    1000000 WORDS OF MEMORY AVAILABLE

     BASIS OPTIONS
     -------------
     GBASIS=PC1          IGAUSS=       0      POLAR=NONE    
     NDFUNC=       0     NFFUNC=       0     DIFFSP=       F
     NPFUNC=       0      DIFFS=       F     BASNAM=        


     RUN TITLE
     ---------
 Title                                                                           

 THE POINT GROUP OF THE MOLECULE IS CNV     
 THE ORDER OF THE PRINCIPAL AXIS IS     2

 YOUR FULLY SUBSTITUTED Z-MATRIX IS
 S   
 O      1   1.1000000
 O      1   1.1000000  2  170.0000

 THE MOMENTS OF INERTIA ARE (AMU-ANGSTROM**2)
 IXX=     0.147   IYY=    38.414   IZZ=    38.561

 ATOM      ATOMIC                      COORDINATES (BOHR)
           CHARGE         X                   Y                   Z
 S          16.0     0.0000000000        0.0000000000       -0.0906103979
 O           8.0    -2.0707885108        0.0000000000        0.0905601214
 O           8.0     2.0707885108        0.0000000000        0.0905601214

          INTERNUCLEAR DISTANCES (ANGS.)
          ------------------------------

                1 S          2 O          3 O     

   1 S       0.0000000    1.1000000 *  1.1000000 *
   2 O       1.1000000 *  0.0000000    2.1916283 *
   3 O       1.1000000 *  2.1916283 *  0.0000000  

  * ... LESS THAN  3.000


     ATOMIC BASIS SET
     ----------------
 THE CONTRACTED PRIMITIVE FUNCTIONS HAVE BEEN UNNORMALIZED
 THE CONTRACTED BASIS FUNCTIONS ARE NOW NORMALIZED TO UNITY

  SHELL TYPE  PRIMITIVE        EXPONENT          CONTRACTION COEFFICIENT(S)

 S         

      1   S       1         55510.0000000    0.000587229760
      1   S       2          8326.7000000    0.004532413947
      1   S       3          1895.6000000    0.023265261648
      1   S       4           536.7700000    0.089696133027
      1   S       5           174.6700000    0.254098332277
      1   S       6            62.5780000    0.438665087637
      1   S       7            23.5730000    0.314547135094
      1   S       8             5.8908000    0.032727897102

      2   S       9          8326.7000000   -0.000019755715
      2   S      10          1895.6000000   -0.000043822381
      2   S      11           536.7700000   -0.001730264906
      2   S      12           174.6700000   -0.009381263460
      2   S      13            62.5780000   -0.064050766303
      2   S      14            23.5730000   -0.082478179196
      2   S      15             5.8908000    0.478342956889
      2   S      16             2.1852000    0.626896670208

      3   S      17          1895.6000000    0.000016227260
      3   S      18           536.7700000    0.000191135619
      3   S      19           174.6700000    0.001952069674
      3   S      20            62.5780000    0.010578701087
      3   S      21            23.5730000    0.022164934551
      3   S      22             5.8908000   -0.184968323118
      3   S      23             2.1852000   -0.480920750976
      3   S      24             0.4528200    1.243822243872

      4   S      25             0.1620200    1.000000000000

      5   P      26           395.4500000    0.004642761329
      5   P      27            92.8340000    0.036023396489
      5   P      28            29.2660000    0.149058869978
      5   P      29            10.5950000    0.360033266263
      5   P      30             4.0272000    0.455756476221
      5   P      31             1.5484000    0.206167664178

      6   P      32            92.8340000    0.000169901442
      6   P      33            29.2660000   -0.002541839934
      6   P      34            10.5950000   -0.007867614595
      6   P      35             4.0272000   -0.037231009184
      6   P      36             1.5484000    0.161417246830
      6   P      37             0.4613400    0.902230419976

      7   P      38             0.1313100    1.000000000000

      8   D      39             0.5500000    1.000000000000

 O         

     15   S      40          2306.7000000    0.005424388755
     15   S      41           347.1500000    0.040474749465
     15   S      42            78.8900000    0.180219634554
     15   S      43            21.8760000    0.462370311787
     15   S      44             6.6646000    0.454888396263

     16   S      45           347.1500000   -0.000655003786
     16   S      46            78.8900000   -0.005362052952
     16   S      47            21.8760000   -0.074902158894
     16   S      48             6.6646000   -0.181442579655
     16   S      49             1.0669000    1.102006874042

     17   S      50             0.3070000    1.000000000000

     18   P      51            17.0220000    0.068979967443
     18   P      52             3.6838000    0.351985516325
     18   P      53             0.9923400    0.724036547822

     19   P      54             0.2448700    1.000000000000

     20   D      55             1.0000000    1.000000000000

 TOTAL NUMBER OF BASIS SET SHELLS             =   20
 NUMBER OF CARTESIAN GAUSSIAN BASIS FUNCTIONS =   49
 NOTE: THIS RUN WILL RESTRICT THE MO VARIATION SPACE TO SPHERICAL HARMONICS.
 THE NUMBER OF ORBITALS KEPT IN THE VARIATIONAL SPACE WILL BE PRINTED LATER.
 NUMBER OF ELECTRONS                          =   32
 CHARGE OF MOLECULE                           =    0
 SPIN MULTIPLICITY                            =    1
 NUMBER OF OCCUPIED ORBITALS (ALPHA)          =   16
 NUMBER OF OCCUPIED ORBITALS (BETA )          =   16
 TOTAL NUMBER OF ATOMS                        =    3
 THE NUCLEAR REPULSION ENERGY IS      138.6070287792

     LEBEDEV GRID-BASED DFT OPTIONS
     ------------------------------
     DFTTYP=PBE     
     NRAD  =      96     NLEB  =     302
     NRAD0 =      24     NLEB0 =     110
     SWOFF =    5.00E-03 (PURE SCF -> DFT)
     SWITCH=    3.00E-04 (COARSE -> TIGHT GRID)
     THRESH=    0.00E+00 GTHRE=    1.00E+00

 GRIMME'S EMPIRICAL DISPERSION CORRECTION= F

     $CONTRL OPTIONS
     ---------------
 SCFTYP=RHF          RUNTYP=ENERGY       EXETYP=RUN     
 MPLEVL=       0     CITYP =NONE         CCTYP =NONE         VBTYP =NONE    
 DFTTYP=PBE          TDDFT =NONE    
 MULT  =       1     ICHARG=       0     NZVAR =       0     COORD =ZMT     
 PP    =NONE         RELWFN=NONE         LOCAL =NONE         NUMGRD=       F
 ISPHER=       1     NOSYM =       0     MAXIT =      30     UNITS =ANGS    
 PLTORB=       F     MOLPLT=       F     AIMPAC=       F     FRIEND=        
 NPRINT=       7     IREST =       0     GEOM  =INPUT   
 NORMF =       0     NORMP =       0     ITOL  =      20     ICUT  =       9
 INTTYP=BEST         GRDTYP=BEST         QMTTOL= 1.0E-06

     $SYSTEM OPTIONS
     ---------------
  REPLICATED MEMORY=     1000000 WORDS (ON EVERY NODE).
 DISTRIBUTED MEMDDI=           0 MILLION WORDS IN AGGREGATE,
 MEMDDI DISTRIBUTED OVER   1 PROCESSORS IS           0 WORDS/PROCESSOR.
 TOTAL MEMORY REQUESTED ON EACH PROCESSOR=     1000000 WORDS.
 TIMLIM=      525600.00 MINUTES, OR     365.0 DAYS.
 PARALL= F  BALTYP=  DLB     KDIAG=    0  COREFL= F
 MXSEQ2=     300 MXSEQ3=     150

          ----------------
          PROPERTIES INPUT
          ----------------

     MOMENTS            FIELD           POTENTIAL          DENSITY
 IEMOM =       1   IEFLD =       0   IEPOT =       0   IEDEN =       0
 WHERE =COMASS     WHERE =NUCLEI     WHERE =NUCLEI     WHERE =NUCLEI  
 OUTPUT=BOTH       OUTPUT=BOTH       OUTPUT=BOTH       OUTPUT=BOTH    
 IEMINT=       0   IEFINT=       0                     IEDINT=       0
                                                       MORB  =       0
          EXTRAPOLATION IN EFFECT
          DIIS IN EFFECT
 ORBITAL PRINTING OPTION: NPREO=     1    49     2     1

     -------------------------------
     INTEGRAL TRANSFORMATION OPTIONS
     -------------------------------
     NWORD  =            0
     CUTOFF = 1.0E-09     MPTRAN =       0
     DIRTRF =       F     AOINTS =DUP     

          ----------------------
          INTEGRAL INPUT OPTIONS
          ----------------------
 NOPK  =       1 NORDER=       0 SCHWRZ=       F

   --- ENCODED Z MATRIX ---
 COORD  TYPE   I   J   K   L   M   N
    1      1    3   1
    2      1    2   1
    3      2    2   1   3

 THE DETERMINANT OF THE G MATRIX IS 10**(    -4)

 THE DETERMINANT OF THE G MATRIX IS 10**(    -4)
 * * * WARNING * * *
 YOUR B MATRIX HAS A SMALL DETERMINANT.
 THIS SUGGESTS YOU MAY HAVE BADLY CHOSEN COORDINATES.

     ------------------------------------------
     THE POINT GROUP IS CNV, NAXIS= 2, ORDER= 4
     ------------------------------------------

 -- VARIATIONAL SPACE WILL BE RESTRICTED TO PURE SPHERICAL HARMONICS ONLY --
 AFTER EXCLUDING CONTAMINANT COMBINATIONS FROM THE CARTESIAN GAUSSIAN BASIS
 SET, THE NUMBER OF SPHERICAL HARMONICS KEPT IN THE VARIATION SPACE IS   46

     DIMENSIONS OF THE SYMMETRY SUBSPACES ARE
 A1  =   19     A2  =    5     B1  =   14     B2  =    8

 ..... DONE SETTING UP THE RUN .....
 STEP CPU TIME =     0.10 TOTAL CPU TIME =        0.1 (    0.0 MIN)
 TOTAL WALL CLOCK TIME=        0.1 SECONDS, CPU UTILIZATION IS  90.91%

          ********************
          1 ELECTRON INTEGRALS
          ********************
 ...... END OF ONE-ELECTRON INTEGRALS ......
 STEP CPU TIME =     0.00 TOTAL CPU TIME =        0.1 (    0.0 MIN)
 TOTAL WALL CLOCK TIME=        0.1 SECONDS, CPU UTILIZATION IS  83.33%

          -------------
          GUESS OPTIONS
          -------------
          GUESS =HUCKEL            NORB  =       0          NORDER=       0
          MIX   =       F          PRTMO =       F          PUNMO =       F
          TOLZ  = 1.0E-08          TOLE  = 1.0E-05
          SYMDEN=       F          PURIFY=       F

 INITIAL GUESS ORBITALS GENERATED BY HUCKEL   ROUTINE.
 HUCKEL GUESS REQUIRES     21583 WORDS.

 STATISTICS FOR GENERATION OF SYMMETRY ORBITAL -Q- MATRIX
 NUMBER OF CARTESIAN ATOMIC ORBITALS=         49
 NUMBER OF SPHERICAL CONTAMINANTS DROPPED=     3
 NUMBER OF LINEARLY DEPENDENT MOS DROPPED=     0
 TOTAL NUMBER OF MOS IN VARIATION SPACE=      46

 SYMMETRIES FOR INITIAL GUESS ORBITALS FOLLOW.   BOTH SET(S).
    16 ORBITALS ARE OCCUPIED (    7 CORE ORBITALS).
     8=?A1      9=?B1     10=B2      11=A1      12=A1      13=B1      14=A2  
    15=B1      16=A1      17=B2      18=A1      19=B1      20=A1      21=A1  
    22=A1      23=A1      24=A1      25=A1      26=A1  
 ...... END OF INITIAL ORBITAL SELECTION ......
 STEP CPU TIME =     0.01 TOTAL CPU TIME =        0.1 (    0.0 MIN)
 TOTAL WALL CLOCK TIME=        0.1 SECONDS, CPU UTILIZATION IS  91.67%

                    ----------------------
                    AO INTEGRAL TECHNOLOGY
                    ----------------------
     S,P,L SHELL ROTATED AXIS INTEGRALS, REPROGRAMMED BY
        KAZUYA ISHIMURA (IMS) AND JOSE SIERRA (SYNSTAR).
     S,P,D,L SHELL ROTATED AXIS INTEGRALS PROGRAMMED BY
        KAZUYA ISHIMURA (INSTITUTE FOR MOLECULAR SCIENCE).
     S,P,D,F,G SHELL TO TOTAL QUARTET ANGULAR MOMENTUM SUM 5,
        ERIC PROGRAM BY GRAHAM FLETCHER (ELORET AND NASA ADVANCED
        SUPERCOMPUTING DIVISION, AMES RESEARCH CENTER).
     S,P,D,F,G,L SHELL GENERAL RYS QUADRATURE PROGRAMMED BY
        MICHEL DUPUIS (PACIFIC NORTHWEST NATIONAL LABORATORY).

          --------------------
          2 ELECTRON INTEGRALS
          --------------------

 THE -PK- OPTION IS OFF, THE INTEGRALS ARE NOT IN SUPERMATRIX FORM.
 STORING   15000 INTEGRALS/RECORD ON DISK, USING 12 BYTES/INTEGRAL.
 TWO ELECTRON INTEGRAL EVALUATION REQUIRES   90606 WORDS OF MEMORY.
 II,JST,KST,LST =  1  1  1  1 NREC =         1 INTLOC =    1
 II,JST,KST,LST =  2  1  1  1 NREC =         1 INTLOC =    2
 II,JST,KST,LST =  3  1  1  1 NREC =         1 INTLOC =    7
 II,JST,KST,LST =  4  1  1  1 NREC =         1 INTLOC =   22
 II,JST,KST,LST =  5  1  1  1 NREC =         1 INTLOC =   56
 II,JST,KST,LST =  6  1  1  1 NREC =         1 INTLOC =  125
 II,JST,KST,LST =  7  1  1  1 NREC =         1 INTLOC =  329
 II,JST,KST,LST =  8  1  1  1 NREC =         1 INTLOC =  776
 II,JST,KST,LST =  9  1  1  1 NREC =         1 INTLOC = 2864
 II,JST,KST,LST = 10  1  1  1 NREC =         1 INTLOC = 2864
 II,JST,KST,LST = 11  1  1  1 NREC =         1 INTLOC = 2864
 II,JST,KST,LST = 12  1  1  1 NREC =         1 INTLOC = 2864
 II,JST,KST,LST = 13  1  1  1 NREC =         1 INTLOC = 2864
 II,JST,KST,LST = 14  1  1  1 NREC =         1 INTLOC = 2864
 II,JST,KST,LST = 15  1  1  1 NREC =         1 INTLOC = 2864
 II,JST,KST,LST = 16  1  1  1 NREC =         1 INTLOC = 5222
 II,JST,KST,LST = 17  1  1  1 NREC =         1 INTLOC = 8566
 II,JST,KST,LST = 18  1  1  1 NREC =         1 INTLOC =13063
 II,JST,KST,LST = 19  1  1  1 NREC =         3 INTLOC = 1404
 II,JST,KST,LST = 20  1  1  1 NREC =         5 INTLOC = 2879
 TOTAL NUMBER OF NONZERO TWO-ELECTRON INTEGRALS =              181965
         13 INTEGRAL RECORDS WERE STORED ON DISK FILE  8.
  ...... END OF TWO-ELECTRON INTEGRALS .....
 STEP CPU TIME =     0.17 TOTAL CPU TIME =        0.3 (    0.0 MIN)
 TOTAL WALL CLOCK TIME=        0.3 SECONDS, CPU UTILIZATION IS  96.55%

          --------------------------
               R-PBE SCF CALCULATION
          --------------------------

     NUCLEAR ENERGY =       138.6070287792
     MAXIT =   30     NPUNCH=    2
     EXTRAP=T  DAMP=F  SHIFT=F  RSTRCT=F  DIIS=T  DEM=F  SOSCF=F
         DENSITY MATRIX CONVERGENCE THRESHOLD=  1.00E-05
     COARSE -> FINE DFT GRID SWITCH THRESHOLD=  3.00E-04 (SWITCH IN $DFT)
                   HF -> DFT SWITCH THRESHOLD=  5.00E-03 (SWOFF IN $DFT)
     MEMORY REQUIRED FOR RHF ITERS=    183108 WORDS.

 DFT CODE IS SWITCHING FROM THE FINE GRID NRAD= 96,  NLEB=  302
                      TO THE COARSE GRID NRAD0= 24, NLEB0=  110

     EXCHANGE FUNCTIONAL   =PBE       
     CORRELATION FUNCTIONAL=PBE       
     DFT THRESHOLD         =.460E-07
     GRID CHANGE THRESHOLD =.300E-03
 FOR AN EULER-MACLAURIN QUADRATURE USING  96 RADIAL POINTS:
 SMALLEST GAUSSIAN PRIMITIVE EXPONENT=        0.1313100000 OF TYPE -P-
 ON ATOM NUMBER   1 HAS RADIAL NORMALIZATION=  1.000000
  LARGEST GAUSSIAN PRIMITIVE EXPONENT=    55510.0000000000 OF TYPE -S-
 ON ATOM NUMBER   1 HAS RADIAL NORMALIZATION=  0.999999
 DFT IS SWITCHED OFF, PERFORMING PURE SCF UNTIL SWOFF THRESHOLD IS REACHED.

 ITER EX DEM     TOTAL ENERGY        E CHANGE  DENSITY CHANGE    DIIS ERROR
   1  0  0     -544.7900404773  -544.7900404773   0.646272641   1.252421826
          * * *   INITIATING DIIS PROCEDURE   * * *
   2  1  0     -546.0346968732    -1.2446563959   1.668611202   0.159006190
   3  2  0     -546.2144786866    -0.1797818133   0.756280762   0.095896127
   4  3  0     -546.2800369168    -0.0655582302   0.534318239   0.065576183
   5  4  0     -546.3149028397    -0.0348659229   0.401601844   0.039759965
   6  5  0     -546.3315732241    -0.0166703844   0.111822727   0.013926185
   7  6  0     -546.3333303109    -0.0017570868   0.031591598   0.003293334
   8  7  0     -546.3333897121    -0.0000594012   0.004079880   0.000349972
 CONVERGED TO SWOFF, SO DFT CALCULATION IS NOW SWITCHED ON.
          * * *   INITIATING DIIS PROCEDURE   * * *
   9  8  0     -547.4245993117    -1.0912095996   0.212971110   0.103048727
  10  9  0     -547.4389400721    -0.0143407605   0.183139520   0.031349639
  11 10  0     -547.4381378680     0.0008022041   0.096937182   0.033419043
  12 11  0     -547.4422509393    -0.0041130713   0.037049888   0.005503656
  13 12  0     -547.4423032564    -0.0000523170   0.003225542   0.000665309
  14 13  0     -547.4423037832    -0.0000005269   0.002445897   0.000333329
  15 14  0     -547.4423042035    -0.0000004203   0.000082067   0.000016350
 DFT CODE IS SWITCHING BACK TO THE FINE GRID
          * * *   INITIATING DIIS PROCEDURE   * * *
  16 15  0     -547.4048811313     0.0374230722   0.068915668   0.012287507
  17 16  0     -547.4051088024    -0.0002276711   0.021541398   0.002741326
  18 17  0     -547.4051173941    -0.0000085916   0.006907379   0.001450526
  19 18  0     -547.4051267135    -0.0000093195   0.002869956   0.000419415
  20 19  0     -547.4051272139    -0.0000005003   0.000857186   0.000057173
  21 20  0     -547.4051272335    -0.0000000197   0.000014889   0.000012994
  22 21  0     -547.4051272339    -0.0000000004   0.000010879   0.000005587
  23 22  0     -547.4051272340    -0.0000000001   0.000001721   0.000000273

          -----------------
          DENSITY CONVERGED
          -----------------
     TIME TO FORM FOCK OPERATORS=       4.5 SECONDS (       0.2 SEC/ITER)
     TIME TO SOLVE SCF EQUATIONS=       0.0 SECONDS (       0.0 SEC/ITER)

 FINAL R-PBE ENERGY IS     -547.4051272340 AFTER  23 ITERATIONS
 DFT EXCHANGE + CORRELATION ENERGY =       -43.3092787439
 TOTAL ELECTRON NUMBER             =        31.9999998699

          ------------
          EIGENVECTORS
          ------------

                      1          2          3          4          5
                  -88.1429   -18.7642   -18.7642    -7.8129    -5.8447
                     A1         A1         B1         A1         B1  
    1  S  1  S    1.002995  -0.000116   0.000000  -0.273615   0.000000
    2  S  1  S   -0.010052   0.000539   0.000000   1.038442   0.000000
    3  S  1  S    0.002383  -0.001683   0.000000   0.044207   0.000000
    4  S  1  S    0.000127   0.007878   0.000000  -0.004316   0.000000
    5  S  1  X    0.000000   0.000000  -0.000135   0.000000   0.991905
    6  S  1  Y    0.000000   0.000000   0.000000   0.000000   0.000000
    7  S  1  Z    0.000027  -0.000015   0.000000   0.007670   0.000000
    8  S  1  X    0.000000   0.000000   0.003270   0.000000   0.012814
    9  S  1  Y    0.000000   0.000000   0.000000   0.000000   0.000000
   10  S  1  Z    0.000058  -0.000012   0.000000   0.001083   0.000000
   11  S  1  X    0.000000   0.000000  -0.008865   0.000000  -0.000630
   12  S  1  Y    0.000000   0.000000   0.000000   0.000000   0.000000
   13  S  1  Z    0.000014   0.001139   0.000000  -0.000113   0.000000
   14  S  1 XX    0.000638  -0.005626   0.000000   0.005347   0.000000
   15  S  1 YY   -0.000320   0.002788   0.000000  -0.002669   0.000000
   16  S  1 ZZ   -0.000319   0.002838   0.000000  -0.002678   0.000000
   17  S  1 XY    0.000000   0.000000   0.000000   0.000000   0.000000
   18  S  1 XZ    0.000000   0.000000   0.001049   0.000000   0.001372
   19  S  1 YZ    0.000000   0.000000   0.000000   0.000000   0.000000
   20  O  2  S   -0.000016   0.703264   0.703115  -0.002411   0.004758
   21  O  2  S   -0.000179   0.029117   0.027796   0.000480  -0.005785
   22  O  2  S   -0.000787  -0.011933  -0.014474  -0.004877   0.000322
   23  O  2  X   -0.000286   0.003494   0.002150   0.002157  -0.008631
   24  O  2  Y    0.000000   0.000000   0.000000   0.000000   0.000000
   25  O  2  Z    0.000038  -0.000261   0.000036  -0.000089   0.001001
   26  O  2  X   -0.000461  -0.003179  -0.000740  -0.003521   0.000883
   27  O  2  Y    0.000000   0.000000   0.000000   0.000000   0.000000
   28  O  2  Z    0.000061  -0.000476   0.000629   0.000463   0.000246
   29  O  2 XX   -0.000048   0.000504   0.000791   0.002616  -0.004004
   30  O  2 YY    0.000027  -0.000282  -0.000359  -0.001307   0.002058
   31  O  2 ZZ    0.000021  -0.000221  -0.000432  -0.001310   0.001946
   32  O  2 XY    0.000000   0.000000   0.000000   0.000000   0.000000
   33  O  2 XZ    0.000033  -0.000386   0.000220  -0.000231   0.000923
   34  O  2 YZ    0.000000   0.000000   0.000000   0.000000   0.000000
   35  O  3  S   -0.000016   0.703264  -0.703115  -0.002411  -0.004758
   36  O  3  S   -0.000179   0.029117  -0.027796   0.000480   0.005785
   37  O  3  S   -0.000787  -0.011933   0.014474  -0.004877  -0.000322
   38  O  3  X    0.000286  -0.003494   0.002150  -0.002157  -0.008631
   39  O  3  Y    0.000000   0.000000   0.000000   0.000000   0.000000
   40  O  3  Z    0.000038  -0.000261  -0.000036  -0.000089  -0.001001
   41  O  3  X    0.000461   0.003179  -0.000740   0.003521   0.000883
   42  O  3  Y    0.000000   0.000000   0.000000   0.000000   0.000000
   43  O  3  Z    0.000061  -0.000476  -0.000629   0.000463  -0.000246
   44  O  3 XX   -0.000048   0.000504  -0.000791   0.002616   0.004004
   45  O  3 YY    0.000027  -0.000282   0.000359  -0.001307  -0.002058
   46  O  3 ZZ    0.000021  -0.000221   0.000432  -0.001310  -0.001946
   47  O  3 XY    0.000000   0.000000   0.000000   0.000000   0.000000
   48  O  3 XZ   -0.000033   0.000386   0.000220   0.000231   0.000923
   49  O  3 YZ    0.000000   0.000000   0.000000   0.000000   0.000000

                      6          7          8          9         10
                   -5.8194    -5.8186    -1.2255    -1.1245    -0.5572
                     B2         A1         A1         B1         B2  
    1  S  1  S    0.000000   0.002336   0.066555   0.000000   0.000000
    2  S  1  S    0.000000  -0.008625  -0.232408   0.000000   0.000000
    3  S  1  S    0.000000   0.000764   0.307718   0.000000   0.000000
    4  S  1  S    0.000000  -0.000346   0.082987   0.000000   0.000000
    5  S  1  X    0.000000   0.000000   0.000000  -0.250208   0.000000
    6  S  1  Y    0.996306   0.000000   0.000000   0.000000  -0.211878
    7  S  1  Z    0.000000   0.996258  -0.024395   0.000000   0.000000
    8  S  1  X    0.000000   0.000000   0.000000   0.359756   0.000000
    9  S  1  Y    0.010086   0.000000   0.000000   0.000000   0.443545
   10  S  1  Z    0.000000   0.010066   0.035231   0.000000   0.000000
   11  S  1  X    0.000000   0.000000   0.000000  -0.008569   0.000000
   12  S  1  Y   -0.000879   0.000000   0.000000   0.000000   0.110668
   13  S  1  Z    0.000000  -0.000871  -0.004408   0.000000   0.000000
   14  S  1 XX    0.000000  -0.000264   0.106135   0.000000   0.000000
   15  S  1 YY    0.000000  -0.000396  -0.053581   0.000000   0.000000
   16  S  1 ZZ    0.000000   0.000660  -0.052554   0.000000   0.000000
   17  S  1 XY    0.000000   0.000000   0.000000   0.000000   0.000000
   18  S  1 XZ    0.000000   0.000000   0.000000   0.028355   0.000000
   19  S  1 YZ    0.000608   0.000000   0.000000   0.000000   0.021920
   20  O  2  S    0.000000  -0.000378  -0.135930   0.150069   0.000000
   21  O  2  S    0.000000   0.000525   0.233933  -0.285160   0.000000
   22  O  2  S    0.000000   0.000038   0.216772  -0.246751   0.000000
   23  O  2  X    0.000000   0.000801   0.161792  -0.165439   0.000000
   24  O  2  Y    0.001296   0.000000   0.000000   0.000000   0.355001
   25  O  2  Z    0.000000   0.001227  -0.006308   0.011319   0.000000
   26  O  2  X    0.000000  -0.000132   0.039936  -0.008939   0.000000
   27  O  2  Y    0.000066   0.000000   0.000000   0.000000   0.174530
   28  O  2  Z    0.000000   0.000070   0.003376   0.002402   0.000000
   29  O  2 XX    0.000000   0.000399   0.029635  -0.024302   0.000000
   30  O  2 YY    0.000000  -0.000068  -0.014572   0.012440   0.000000
   31  O  2 ZZ    0.000000  -0.000330  -0.015063   0.011862   0.000000
   32  O  2 XY    0.001213   0.000000   0.000000   0.000000   0.036372
   33  O  2 XZ    0.000000   0.001166  -0.000749   0.005309   0.000000
   34  O  2 YZ   -0.000153   0.000000   0.000000   0.000000  -0.002139
   35  O  3  S    0.000000  -0.000378  -0.135930  -0.150069   0.000000
   36  O  3  S    0.000000   0.000525   0.233933   0.285160   0.000000
   37  O  3  S    0.000000   0.000038   0.216772   0.246751   0.000000
   38  O  3  X    0.000000  -0.000801  -0.161792  -0.165439   0.000000
   39  O  3  Y    0.001296   0.000000   0.000000   0.000000   0.355001
   40  O  3  Z    0.000000   0.001227  -0.006308  -0.011319   0.000000
   41  O  3  X    0.000000   0.000132  -0.039936  -0.008939   0.000000
   42  O  3  Y    0.000066   0.000000   0.000000   0.000000   0.174530
   43  O  3  Z    0.000000   0.000070   0.003376  -0.002402   0.000000
   44  O  3 XX    0.000000   0.000399   0.029635   0.024302   0.000000
   45  O  3 YY    0.000000  -0.000068  -0.014572  -0.012440   0.000000
   46  O  3 ZZ    0.000000  -0.000330  -0.015063  -0.011862   0.000000
   47  O  3 XY   -0.001213   0.000000   0.000000   0.000000  -0.036372
   48  O  3 XZ    0.000000  -0.001166   0.000749   0.005309   0.000000
   49  O  3 YZ   -0.000153   0.000000   0.000000   0.000000  -0.002139

                     11         12         13         14         15
                   -0.5555    -0.5081    -0.4550    -0.4378    -0.4353
                     A1         A1         B1         A2         B1  
    1  S  1  S   -0.003257   0.045843   0.000000   0.000000   0.000000
    2  S  1  S    0.009174  -0.134760   0.000000   0.000000   0.000000
    3  S  1  S   -0.019953   0.273477   0.000000   0.000000   0.000000
    4  S  1  S   -0.019478   0.067764   0.000000   0.000000   0.000000
    5  S  1  X    0.000000   0.000000   0.171483   0.000000   0.015534
    6  S  1  Y    0.000000   0.000000   0.000000   0.000000   0.000000
    7  S  1  Z   -0.209979  -0.003962   0.000000   0.000000   0.000000
    8  S  1  X    0.000000   0.000000  -0.305499   0.000000  -0.025762
    9  S  1  Y    0.000000   0.000000   0.000000   0.000000   0.000000
   10  S  1  Z    0.439478   0.007075   0.000000   0.000000   0.000000
   11  S  1  X    0.000000   0.000000   0.077804   0.000000   0.014535
   12  S  1  Y    0.000000   0.000000   0.000000   0.000000   0.000000
   13  S  1  Z    0.109851  -0.010617   0.000000   0.000000   0.000000
   14  S  1 XX   -0.036637  -0.013543   0.000000   0.000000   0.000000
   15  S  1 YY   -0.000647   0.007430   0.000000   0.000000   0.000000
   16  S  1 ZZ    0.037283   0.006113   0.000000   0.000000   0.000000
   17  S  1 XY    0.000000   0.000000   0.000000  -0.217096   0.000000
   18  S  1 XZ    0.000000   0.000000   0.016492   0.000000  -0.214944
   19  S  1 YZ    0.000000   0.000000   0.000000   0.000000   0.000000
   20  O  2  S    0.006018   0.093034   0.060319   0.000000   0.007934
   21  O  2  S   -0.006040  -0.190731  -0.127218   0.000000  -0.025761
   22  O  2  S   -0.008901  -0.336742  -0.257707   0.000000  -0.037486
   23  O  2  X    0.035124   0.348433   0.421577   0.000000   0.109191
   24  O  2  Y    0.000000   0.000000   0.000000   0.454474   0.000000
   25  O  2  Z    0.353832  -0.034804  -0.109019   0.000000   0.441650
   26  O  2  X    0.020437   0.188648   0.189640   0.000000   0.059136
   27  O  2  Y    0.000000   0.000000   0.000000   0.253803   0.000000
   28  O  2  Z    0.173266  -0.017883  -0.061723   0.000000   0.246891
   29  O  2 XX    0.004085   0.023083   0.028187   0.000000   0.008217
   30  O  2 YY   -0.000261  -0.011750  -0.014337   0.000000  -0.004494
   31  O  2 ZZ   -0.003823  -0.011333  -0.013850   0.000000  -0.003723
   32  O  2 XY    0.000000   0.000000   0.000000   0.021092   0.000000
   33  O  2 XZ    0.035458  -0.003630  -0.008242   0.000000   0.020394
   34  O  2 YZ    0.000000   0.000000   0.000000   0.000460   0.000000
   35  O  3  S    0.006018   0.093034  -0.060319   0.000000  -0.007934
   36  O  3  S   -0.006040  -0.190731   0.127218   0.000000   0.025761
   37  O  3  S   -0.008901  -0.336742   0.257707   0.000000   0.037486
   38  O  3  X   -0.035124  -0.348433   0.421577   0.000000   0.109191
   39  O  3  Y    0.000000   0.000000   0.000000  -0.454474   0.000000
   40  O  3  Z    0.353832  -0.034804   0.109019   0.000000  -0.441650
   41  O  3  X   -0.020437  -0.188648   0.189640   0.000000   0.059136
   42  O  3  Y    0.000000   0.000000   0.000000  -0.253803   0.000000
   43  O  3  Z    0.173266  -0.017883   0.061723   0.000000  -0.246891
   44  O  3 XX    0.004085   0.023083  -0.028187   0.000000  -0.008217
   45  O  3 YY   -0.000261  -0.011750   0.014337   0.000000   0.004494
   46  O  3 ZZ   -0.003823  -0.011333   0.013850   0.000000   0.003723
   47  O  3 XY    0.000000   0.000000   0.000000   0.021092   0.000000
   48  O  3 XZ   -0.035458   0.003630  -0.008242   0.000000   0.020394
   49  O  3 YZ    0.000000   0.000000   0.000000  -0.000460   0.000000

                     16         17         18         19         20
                   -0.1412     0.0144     0.0239     0.2449     0.3469
                     A1         B2         A1         B1         B2  
    1  S  1  S    0.022632   0.000000   0.000413   0.000000   0.000000
    2  S  1  S   -0.123885   0.000000  -0.028026   0.000000   0.000000
    3  S  1  S    0.093544   0.000000  -0.025651   0.000000   0.000000
    4  S  1  S    1.485883   0.000000   0.493038   0.000000   0.000000
    5  S  1  X    0.000000   0.000000   0.000000  -0.008517   0.000000
    6  S  1  Y    0.000000  -0.181921   0.000000   0.000000  -0.304464
    7  S  1  Z    0.052289   0.000000  -0.173412   0.000000   0.000000
    8  S  1  X    0.000000   0.000000   0.000000   0.165992   0.000000
    9  S  1  Y    0.000000   0.506012   0.000000   0.000000   1.139692
   10  S  1  Z   -0.114003   0.000000   0.488363   0.000000   0.000000
   11  S  1  X    0.000000   0.000000   0.000000   2.239976   0.000000
   12  S  1  Y    0.000000   0.946119   0.000000   0.000000  -1.107447
   13  S  1  Z   -0.073435   0.000000   0.966754   0.000000   0.000000
   14  S  1 XX   -0.292629   0.000000  -0.050722   0.000000   0.000000
   15  S  1 YY    0.148591   0.000000   0.045125   0.000000   0.000000
   16  S  1 ZZ    0.144037   0.000000   0.005598   0.000000   0.000000
   17  S  1 XY    0.000000   0.000000   0.000000   0.000000   0.000000
   18  S  1 XZ    0.000000   0.000000   0.000000  -0.005070   0.000000
   19  S  1 YZ    0.000000  -0.020980   0.000000   0.000000   0.040556
   20  O  2  S    0.071521   0.000000   0.020637  -0.079713   0.000000
   21  O  2  S   -0.101246   0.000000  -0.034418   0.089441   0.000000
   22  O  2  S   -0.495765   0.000000  -0.228418   1.437575   0.000000
   23  O  2  X   -0.265603   0.000000  -0.084466  -0.078701   0.000000
   24  O  2  Y    0.000000  -0.404324   0.000000   0.000000  -0.027953
   25  O  2  Z    0.091559   0.000000  -0.390758  -0.026209   0.000000
   26  O  2  X   -0.247625   0.000000  -0.116975   0.175771   0.000000
   27  O  2  Y    0.000000  -0.484728   0.000000   0.000000  -0.035526
   28  O  2  Z    0.086518   0.000000  -0.471316  -0.078756   0.000000
   29  O  2 XX   -0.044706   0.000000  -0.011849   0.031853   0.000000
   30  O  2 YY    0.022266   0.000000   0.006875  -0.015876   0.000000
   31  O  2 ZZ    0.022440   0.000000   0.004974  -0.015977   0.000000
   32  O  2 XY    0.000000  -0.007824   0.000000   0.000000   0.043702
   33  O  2 XZ    0.005044   0.000000  -0.005945  -0.004173   0.000000
   34  O  2 YZ    0.000000  -0.000966   0.000000   0.000000  -0.002096
   35  O  3  S    0.071521   0.000000   0.020637   0.079713   0.000000
   36  O  3  S   -0.101246   0.000000  -0.034418  -0.089441   0.000000
   37  O  3  S   -0.495765   0.000000  -0.228418  -1.437575   0.000000
   38  O  3  X    0.265603   0.000000   0.084466  -0.078701   0.000000
   39  O  3  Y    0.000000  -0.404324   0.000000   0.000000  -0.027953
   40  O  3  Z    0.091559   0.000000  -0.390758   0.026209   0.000000
   41  O  3  X    0.247625   0.000000   0.116975   0.175771   0.000000
   42  O  3  Y    0.000000  -0.484728   0.000000   0.000000  -0.035526
   43  O  3  Z    0.086518   0.000000  -0.471316   0.078756   0.000000
   44  O  3 XX   -0.044706   0.000000  -0.011849  -0.031853   0.000000
   45  O  3 YY    0.022266   0.000000   0.006875   0.015876   0.000000
   46  O  3 ZZ    0.022440   0.000000   0.004974   0.015977   0.000000
   47  O  3 XY    0.000000   0.007824   0.000000   0.000000  -0.043702
   48  O  3 XZ   -0.005044   0.000000   0.005945  -0.004173   0.000000
   49  O  3 YZ    0.000000  -0.000966   0.000000   0.000000  -0.002096

                     21         22         23         24         25
                    0.3486     0.4273     0.5048     0.5050     0.6209
                     A1         A1         B2         A1         B1  
    1  S  1  S    0.001227  -0.046559   0.000000   0.001344   0.000000
    2  S  1  S   -0.014304   0.056206   0.000000  -0.005632   0.000000
    3  S  1  S   -0.004968  -0.425269   0.000000   0.007697   0.000000
    4  S  1  S   -0.328967   3.037558   0.000000  -0.071941   0.000000
    5  S  1  X    0.000000   0.000000   0.000000   0.000000  -0.135060
    6  S  1  Y    0.000000   0.000000   0.009263   0.000000   0.000000
    7  S  1  Z   -0.301756  -0.042715   0.000000   0.009505   0.000000
    8  S  1  X    0.000000   0.000000   0.000000   0.000000   1.041527
    9  S  1  Y    0.000000   0.000000  -0.033295   0.000000   0.000000
   10  S  1  Z    1.124713   0.203135   0.000000  -0.035429   0.000000
   11  S  1  X    0.000000   0.000000   0.000000   0.000000  -0.308454
   12  S  1  Y    0.000000   0.000000   0.093067   0.000000   0.000000
   13  S  1  Z   -1.091167  -0.105193   0.000000   0.094364   0.000000
   14  S  1 XX   -0.148458   0.696476   0.000000  -0.021463   0.000000
   15  S  1 YY    0.042428  -0.379330   0.000000  -0.831236   0.000000
   16  S  1 ZZ    0.106030  -0.317146   0.000000   0.852699   0.000000
   17  S  1 XY    0.000000   0.000000   0.000000   0.000000   0.000000
   18  S  1 XZ    0.000000   0.000000   0.000000   0.000000   0.171833
   19  S  1 YZ    0.000000   0.000000   0.972797   0.000000   0.000000
   20  O  2  S   -0.000246   0.022419   0.000000  -0.000217  -0.029555
   21  O  2  S   -0.008098  -0.015043   0.000000  -0.004762  -0.084100
   22  O  2  S    0.220067  -1.434867   0.000000   0.035278   0.725086
   23  O  2  X   -0.051795   0.285932   0.000000  -0.018087  -0.297967
   24  O  2  Y    0.000000   0.000000  -0.058184   0.000000   0.000000
   25  O  2  Z   -0.029671  -0.009200   0.000000  -0.057811   0.061447
   26  O  2  X    0.099544  -0.962416   0.000000   0.029862   1.358666
   27  O  2  Y    0.000000   0.000000  -0.027325   0.000000   0.000000
   28  O  2  Z   -0.057197   0.118904   0.000000  -0.031365  -0.029957
   29  O  2 XX    0.011845  -0.053840   0.000000   0.001013   0.006654
   30  O  2 YY   -0.004139   0.026629   0.000000  -0.055346  -0.003729
   31  O  2 ZZ   -0.007706   0.027211   0.000000   0.054333  -0.002925
   32  O  2 XY    0.000000   0.000000   0.002220   0.000000   0.000000
   33  O  2 XZ    0.040655   0.020893   0.000000   0.002021  -0.002068
   34  O  2 YZ    0.000000   0.000000   0.063329   0.000000   0.000000
   35  O  3  S   -0.000246   0.022419   0.000000  -0.000217   0.029555
   36  O  3  S   -0.008098  -0.015043   0.000000  -0.004762   0.084100
   37  O  3  S    0.220067  -1.434867   0.000000   0.035278  -0.725086
   38  O  3  X    0.051795  -0.285932   0.000000   0.018087  -0.297967
   39  O  3  Y    0.000000   0.000000  -0.058184   0.000000   0.000000
   40  O  3  Z   -0.029671  -0.009200   0.000000  -0.057811  -0.061447
   41  O  3  X   -0.099544   0.962416   0.000000  -0.029862   1.358666
   42  O  3  Y    0.000000   0.000000  -0.027325   0.000000   0.000000
   43  O  3  Z   -0.057197   0.118904   0.000000  -0.031365   0.029957
   44  O  3 XX    0.011845  -0.053840   0.000000   0.001013  -0.006654
   45  O  3 YY   -0.004139   0.026629   0.000000  -0.055346   0.003729
   46  O  3 ZZ   -0.007706   0.027211   0.000000   0.054333   0.002925
   47  O  3 XY    0.000000   0.000000  -0.002220   0.000000   0.000000
   48  O  3 XZ   -0.040655  -0.020893   0.000000  -0.002021  -0.002068
   49  O  3 YZ    0.000000   0.000000   0.063329   0.000000   0.000000

                     26         27         28         29         30
                    0.6362     0.6385     0.6515     0.9097     0.9127
                     A2         B1         A1         A1         B2  
    1  S  1  S    0.000000   0.000000   0.116101  -0.012465   0.000000
    2  S  1  S    0.000000   0.000000   0.590189  -0.063121   0.000000
    3  S  1  S    0.000000   0.000000   2.012588  -0.218835   0.000000
    4  S  1  S    0.000000   0.000000  -0.307686   0.070011   0.000000
    5  S  1  X    0.000000   0.032167   0.000000   0.000000   0.000000
    6  S  1  Y    0.000000   0.000000   0.000000   0.000000   0.040609
    7  S  1  Z    0.000000   0.000000  -0.011408   0.042721   0.000000
    8  S  1  X    0.000000  -0.154242   0.000000   0.000000   0.000000
    9  S  1  Y    0.000000   0.000000   0.000000   0.000000  -0.056016
   10  S  1  Z    0.000000   0.000000   0.083266  -0.068221   0.000000
   11  S  1  X    0.000000   0.011292   0.000000   0.000000   0.000000
   12  S  1  Y    0.000000   0.000000   0.000000   0.000000   1.224874
   13  S  1  Z    0.000000   0.000000   0.070555   1.218902   0.000000
   14  S  1 XX    0.000000   0.000000  -0.084381  -0.058763   0.000000
   15  S  1 YY    0.000000   0.000000   0.035551  -0.016061   0.000000
   16  S  1 ZZ    0.000000   0.000000   0.048831   0.074824   0.000000
   17  S  1 XY    0.666465   0.000000   0.000000   0.000000   0.000000
   18  S  1 XZ    0.000000   0.664690   0.000000   0.000000   0.000000
   19  S  1 YZ    0.000000   0.000000   0.000000   0.000000   0.052860
   20  O  2  S    0.000000   0.009426   0.054496   0.001109   0.000000
   21  O  2  S    0.000000  -0.019285  -0.103682  -0.008978   0.000000
   22  O  2  S    0.000000  -0.019578  -0.449357   0.036701   0.000000
   23  O  2  X    0.000000  -0.002965   0.129500   0.088799   0.000000
   24  O  2  Y   -0.359840   0.000000   0.000000   0.000000   0.625919
   25  O  2  Z    0.000000  -0.356326   0.019651   0.616950   0.000000
   26  O  2  X    0.000000  -0.022146  -1.047721  -0.014516   0.000000
   27  O  2  Y    0.922918   0.000000   0.000000   0.000000  -1.217557
   28  O  2  Z    0.000000   0.922194   0.009140  -1.212083   0.000000
   29  O  2 XX    0.000000  -0.001554   0.010467  -0.000813   0.000000
   30  O  2 YY    0.000000  -0.001474  -0.005168   0.002260   0.000000
   31  O  2 ZZ    0.000000   0.003027  -0.005299  -0.001446   0.000000
   32  O  2 XY   -0.009896   0.000000   0.000000   0.000000   0.050594
   33  O  2 XZ    0.000000  -0.011729   0.002069   0.047934   0.000000
   34  O  2 YZ    0.002399   0.000000   0.000000   0.000000  -0.002306
   35  O  3  S    0.000000  -0.009426   0.054496   0.001109   0.000000
   36  O  3  S    0.000000   0.019285  -0.103682  -0.008978   0.000000
   37  O  3  S    0.000000   0.019578  -0.449357   0.036701   0.000000
   38  O  3  X    0.000000  -0.002965  -0.129500  -0.088799   0.000000
   39  O  3  Y    0.359840   0.000000   0.000000   0.000000   0.625919
   40  O  3  Z    0.000000   0.356326   0.019651   0.616950   0.000000
   41  O  3  X    0.000000  -0.022146   1.047721   0.014516   0.000000
   42  O  3  Y   -0.922918   0.000000   0.000000   0.000000  -1.217557
   43  O  3  Z    0.000000  -0.922194   0.009140  -1.212083   0.000000
   44  O  3 XX    0.000000   0.001554   0.010467  -0.000813   0.000000
   45  O  3 YY    0.000000   0.001474  -0.005168   0.002260   0.000000
   46  O  3 ZZ    0.000000  -0.003027  -0.005299  -0.001446   0.000000
   47  O  3 XY   -0.009896   0.000000   0.000000   0.000000  -0.050594
   48  O  3 XZ    0.000000  -0.011729  -0.002069  -0.047934   0.000000
   49  O  3 YZ   -0.002399   0.000000   0.000000   0.000000  -0.002306

                     31         32         33         34         35
                    0.9259     0.9317     1.5224     1.5661     1.7980
                     B1         A2         B1         A1         B1  
    1  S  1  S    0.000000   0.000000   0.000000  -0.045877   0.000000
    2  S  1  S    0.000000   0.000000   0.000000  -0.198901   0.000000
    3  S  1  S    0.000000   0.000000   0.000000  -0.767849   0.000000
    4  S  1  S    0.000000   0.000000   0.000000  -2.589077   0.000000
    5  S  1  X    0.089763   0.000000  -0.382306   0.000000  -0.048892
    6  S  1  Y    0.000000   0.000000   0.000000   0.000000   0.000000
    7  S  1  Z    0.000000   0.000000   0.000000   0.018635   0.000000
    8  S  1  X   -0.422146   0.000000   1.659943   0.000000   0.545908
    9  S  1  Y    0.000000   0.000000   0.000000   0.000000   0.000000
   10  S  1  Z    0.000000   0.000000   0.000000  -0.121788   0.000000
   11  S  1  X    0.257753   0.000000  -0.045453   0.000000   1.991549
   12  S  1  Y    0.000000   0.000000   0.000000   0.000000   0.000000
   13  S  1  Z    0.000000   0.000000   0.000000  -0.228399   0.000000
   14  S  1 XX    0.000000   0.000000   0.000000  -0.710138   0.000000
   15  S  1 YY    0.000000   0.000000   0.000000   0.361592   0.000000
   16  S  1 ZZ    0.000000   0.000000   0.000000   0.348546   0.000000
   17  S  1 XY    0.000000   0.900122   0.000000   0.000000   0.000000
   18  S  1 XZ    0.854741   0.000000   0.222806   0.000000   0.063467
   19  S  1 YZ    0.000000   0.000000   0.000000   0.000000   0.000000
   20  O  2  S    0.010944   0.000000  -0.037345  -0.000726  -0.015024
   21  O  2  S   -0.019720   0.000000   0.488834  -0.896361  -1.317265
   22  O  2  S   -0.032231   0.000000   0.420096   2.611094   2.898547
   23  O  2  X   -0.004792   0.000000   0.661922   0.414792   0.213545
   24  O  2  Y    0.000000   0.587374   0.000000   0.000000   0.000000
   25  O  2  Z    0.584742   0.000000   0.021523  -0.090089   0.017063
   26  O  2  X   -0.202700   0.000000   0.109484   0.726808   0.224605
   27  O  2  Y    0.000000  -0.086871   0.000000   0.000000   0.000000
   28  O  2  Z   -0.099758   0.000000  -0.014606   0.051101  -0.107839
   29  O  2 XX   -0.000278   0.000000  -0.178163  -0.203918  -0.143594
   30  O  2 YY   -0.016808   0.000000   0.075301   0.103304   0.074173
   31  O  2 ZZ    0.017086   0.000000   0.102862   0.100614   0.069421
   32  O  2 XY    0.000000  -0.093449   0.000000   0.000000   0.000000
   33  O  2 XZ   -0.088646   0.000000  -0.046840   0.005057   0.070159
   34  O  2 YZ    0.000000   0.020540   0.000000   0.000000   0.000000
   35  O  3  S   -0.010944   0.000000   0.037345  -0.000726   0.015024
   36  O  3  S    0.019720   0.000000  -0.488834  -0.896361   1.317265
   37  O  3  S    0.032231   0.000000  -0.420096   2.611094  -2.898547
   38  O  3  X   -0.004792   0.000000   0.661922  -0.414792   0.213545
   39  O  3  Y    0.000000  -0.587374   0.000000   0.000000   0.000000
   40  O  3  Z   -0.584742   0.000000  -0.021523  -0.090089  -0.017063
   41  O  3  X   -0.202700   0.000000   0.109484  -0.726808   0.224605
   42  O  3  Y    0.000000   0.086871   0.000000   0.000000   0.000000
   43  O  3  Z    0.099758   0.000000   0.014606   0.051101   0.107839
   44  O  3 XX    0.000278   0.000000   0.178163  -0.203918   0.143594
   45  O  3 YY    0.016808   0.000000  -0.075301   0.103304  -0.074173
   46  O  3 ZZ   -0.017086   0.000000  -0.102862   0.100614  -0.069421
   47  O  3 XY    0.000000  -0.093449   0.000000   0.000000   0.000000
   48  O  3 XZ   -0.088646   0.000000  -0.046840  -0.005057   0.070159
   49  O  3 YZ    0.000000  -0.020540   0.000000   0.000000   0.000000

                     36         37         38         39         40
                    1.9582     1.9583     2.1419     2.1437     2.2901
                     A2         B1         A1         B2         A1  
    1  S  1  S    0.000000   0.000000   0.002858   0.000000  -0.009757
    2  S  1  S    0.000000   0.000000  -0.022752   0.000000   0.188862
    3  S  1  S    0.000000   0.000000   0.006949   0.000000   0.118575
    4  S  1  S    0.000000   0.000000  -0.010333   0.000000   0.087263
    5  S  1  X    0.000000  -0.002833   0.000000   0.000000   0.000000
    6  S  1  Y    0.000000   0.000000   0.000000  -0.017346   0.000000
    7  S  1  Z    0.000000   0.000000  -0.022720   0.000000   0.096687
    8  S  1  X    0.000000   0.007705   0.000000   0.000000   0.000000
    9  S  1  Y    0.000000   0.000000   0.000000   0.118358   0.000000
   10  S  1  Z    0.000000   0.000000   0.147691   0.000000  -0.612870
   11  S  1  X    0.000000   0.017736   0.000000   0.000000   0.000000
   12  S  1  Y    0.000000   0.000000   0.000000   0.000721   0.000000
   13  S  1  Z    0.000000   0.000000  -0.000031   0.000000  -0.101585
   14  S  1 XX    0.000000   0.000000   0.094409   0.000000  -0.496268
   15  S  1 YY    0.000000   0.000000   0.240126   0.000000   0.374237
   16  S  1 ZZ    0.000000   0.000000  -0.334535   0.000000   0.122031
   17  S  1 XY    0.023514   0.000000   0.000000   0.000000   0.000000
   18  S  1 XZ    0.000000  -0.022409   0.000000   0.000000   0.000000
   19  S  1 YZ    0.000000   0.000000   0.000000  -0.338373   0.000000
   20  O  2  S    0.000000  -0.000399  -0.001430   0.000000   0.011026
   21  O  2  S    0.000000  -0.006618  -0.095868   0.000000   0.540078
   22  O  2  S    0.000000   0.019264   0.046830   0.000000  -0.346580
   23  O  2  X    0.000000   0.005130  -0.048710   0.000000   0.253443
   24  O  2  Y   -0.004319   0.000000   0.000000   0.018966   0.000000
   25  O  2  Z    0.000000   0.004788   0.029363   0.000000  -0.104092
   26  O  2  X    0.000000  -0.004522   0.029207   0.000000  -0.225528
   27  O  2  Y    0.014465   0.000000   0.000000  -0.042221   0.000000
   28  O  2  Z    0.000000  -0.015437  -0.053418   0.000000   0.309040
   29  O  2 XX    0.000000  -0.019203  -0.001963   0.000000  -0.057443
   30  O  2 YY    0.000000   0.613934  -0.622639   0.000000  -0.069041
   31  O  2 ZZ    0.000000  -0.594731   0.624602   0.000000   0.126484
   32  O  2 XY    0.115622   0.000000   0.000000  -0.071039   0.000000
   33  O  2 XZ    0.000000  -0.114441  -0.099424   0.000000   0.693811
   34  O  2 YZ    0.697906   0.000000   0.000000   0.726023   0.000000
   35  O  3  S    0.000000   0.000399  -0.001430   0.000000   0.011026
   36  O  3  S    0.000000   0.006618  -0.095868   0.000000   0.540078
   37  O  3  S    0.000000  -0.019264   0.046830   0.000000  -0.346580
   38  O  3  X    0.000000   0.005130   0.048710   0.000000  -0.253443
   39  O  3  Y    0.004319   0.000000   0.000000   0.018966   0.000000
   40  O  3  Z    0.000000  -0.004788   0.029363   0.000000  -0.104092
   41  O  3  X    0.000000  -0.004522  -0.029207   0.000000   0.225528
   42  O  3  Y   -0.014465   0.000000   0.000000  -0.042221   0.000000
   43  O  3  Z    0.000000   0.015437  -0.053418   0.000000   0.309040
   44  O  3 XX    0.000000   0.019203  -0.001963   0.000000  -0.057443
   45  O  3 YY    0.000000  -0.613934  -0.622639   0.000000  -0.069041
   46  O  3 ZZ    0.000000   0.594731   0.624602   0.000000   0.126484
   47  O  3 XY    0.115622   0.000000   0.000000   0.071039   0.000000
   48  O  3 XZ    0.000000  -0.114441   0.099424   0.000000  -0.693811
   49  O  3 YZ   -0.697906   0.000000   0.000000   0.726023   0.000000

                     41         42         43         44         45
                    2.3476     2.5824     2.8730     2.9336     2.9594
                     B2         A1         B1         A1         A2  
    1  S  1  S    0.000000  -0.035176   0.000000   0.107207   0.000000
    2  S  1  S    0.000000  -0.748636   0.000000   0.631551   0.000000
    3  S  1  S    0.000000  -1.405816   0.000000   2.192061   0.000000
    4  S  1  S    0.000000  -1.093618   0.000000   1.631098   0.000000
    5  S  1  X    0.000000   0.000000  -0.098318   0.000000   0.000000
    6  S  1  Y    0.102343   0.000000   0.000000   0.000000   0.000000
    7  S  1  Z    0.000000   0.038882   0.000000   0.003372   0.000000
    8  S  1  X    0.000000   0.000000   2.483135   0.000000   0.000000
    9  S  1  Y   -0.702825   0.000000   0.000000   0.000000   0.000000
   10  S  1  Z    0.000000  -0.414055   0.000000   0.056138   0.000000
   11  S  1  X    0.000000   0.000000   0.350436   0.000000   0.000000
   12  S  1  Y   -0.157641   0.000000   0.000000   0.000000   0.000000
   13  S  1  Z    0.000000  -0.154003   0.000000  -0.053163   0.000000
   14  S  1 XX    0.000000   0.331105   0.000000   2.109142   0.000000
   15  S  1 YY    0.000000  -0.123487   0.000000  -1.040218   0.000000
   16  S  1 ZZ    0.000000  -0.207618   0.000000  -1.068923   0.000000
   17  S  1 XY    0.000000   0.000000   0.000000   0.000000   1.315042
   18  S  1 XZ    0.000000   0.000000  -0.250804   0.000000   0.000000
   19  S  1 YZ   -0.138773   0.000000   0.000000   0.000000   0.000000
   20  O  2  S    0.000000  -0.036593  -0.044713  -0.011031   0.000000
   21  O  2  S    0.000000  -0.970541  -0.364991  -0.665540   0.000000
   22  O  2  S    0.000000   1.778708   2.093629  -1.768425   0.000000
   23  O  2  X    0.000000  -0.112925   0.421020  -0.934296   0.000000
   24  O  2  Y   -0.073303   0.000000   0.000000   0.000000   0.232317
   25  O  2  Z    0.000000   0.000412  -0.087211   0.123694   0.000000
   26  O  2  X    0.000000   0.977600   1.072364  -0.713926   0.000000
   27  O  2  Y    0.365366   0.000000   0.000000   0.000000   0.449844
   28  O  2  Z    0.000000   0.120732  -0.227577   0.205495   0.000000
   29  O  2 XX    0.000000   0.713287   0.852103  -0.609692   0.000000
   30  O  2 YY    0.000000  -0.355752  -0.465599   0.324387   0.000000
   31  O  2 ZZ    0.000000  -0.357535  -0.386504   0.285305   0.000000
   32  O  2 XY    0.793819   0.000000   0.000000   0.000000   0.970428
   33  O  2 XZ    0.000000   0.251309  -0.426030   0.329572   0.000000
   34  O  2 YZ    0.066862   0.000000   0.000000   0.000000  -0.141249
   35  O  3  S    0.000000  -0.036593   0.044713  -0.011031   0.000000
   36  O  3  S    0.000000  -0.970541   0.364991  -0.665540   0.000000
   37  O  3  S    0.000000   1.778708  -2.093629  -1.768425   0.000000
   38  O  3  X    0.000000   0.112925   0.421020   0.934296   0.000000
   39  O  3  Y   -0.073303   0.000000   0.000000   0.000000  -0.232317
   40  O  3  Z    0.000000   0.000412   0.087211   0.123694   0.000000
   41  O  3  X    0.000000  -0.977600   1.072364   0.713926   0.000000
   42  O  3  Y    0.365366   0.000000   0.000000   0.000000  -0.449844
   43  O  3  Z    0.000000   0.120732   0.227577   0.205495   0.000000
   44  O  3 XX    0.000000   0.713287  -0.852103  -0.609692   0.000000
   45  O  3 YY    0.000000  -0.355752   0.465599   0.324387   0.000000
   46  O  3 ZZ    0.000000  -0.357535   0.386504   0.285305   0.000000
   47  O  3 XY   -0.793819   0.000000   0.000000   0.000000   0.970428
   48  O  3 XZ    0.000000  -0.251309  -0.426030  -0.329572   0.000000
   49  O  3 YZ    0.066862   0.000000   0.000000   0.000000   0.141249

                     46
                    2.9666
                     B1  
    1  S  1  S    0.000000
    2  S  1  S    0.000000
    3  S  1  S    0.000000
    4  S  1  S    0.000000
    5  S  1  X   -0.064388
    6  S  1  Y    0.000000
    7  S  1  Z    0.000000
    8  S  1  X    0.956365
    9  S  1  Y    0.000000
   10  S  1  Z    0.000000
   11  S  1  X    0.036875
   12  S  1  Y    0.000000
   13  S  1  Z    0.000000
   14  S  1 XX    0.000000
   15  S  1 YY    0.000000
   16  S  1 ZZ    0.000000
   17  S  1 XY    0.000000
   18  S  1 XZ    1.310560
   19  S  1 YZ    0.000000
   20  O  2  S   -0.008895
   21  O  2  S    0.085143
   22  O  2  S    0.603487
   23  O  2  X    0.266935
   24  O  2  Y    0.000000
   25  O  2  Z    0.201684
   26  O  2  X    0.375700
   27  O  2  Y    0.000000
   28  O  2  Z    0.399023
   29  O  2 XX    0.440825
   30  O  2 YY   -0.105535
   31  O  2 ZZ   -0.335290
   32  O  2 XY    0.000000
   33  O  2 XZ    0.859913
   34  O  2 YZ    0.000000
   35  O  3  S    0.008895
   36  O  3  S   -0.085143
   37  O  3  S   -0.603487
   38  O  3  X    0.266935
   39  O  3  Y    0.000000
   40  O  3  Z   -0.201684
   41  O  3  X    0.375700
   42  O  3  Y    0.000000
   43  O  3  Z   -0.399023
   44  O  3 XX   -0.440825
   45  O  3 YY    0.105535
   46  O  3 ZZ    0.335290
   47  O  3 XY    0.000000
   48  O  3 XZ    0.859913
   49  O  3 YZ    0.000000
 ...... END OF RHF CALCULATION ......
 STEP CPU TIME =     4.55 TOTAL CPU TIME =        4.8 (    0.1 MIN)
 TOTAL WALL CLOCK TIME=        4.8 SECONDS, CPU UTILIZATION IS 100.00%

     ---------------------------------------------------------------------
     PROPERTIES FOR THE PBE      DFT FUNCTIONAL (RHF  TYPE) DENSITY MATRIX
     ---------------------------------------------------------------------

          -----------------
          ENERGY COMPONENTS
          -----------------

         WAVEFUNCTION NORMALIZATION =       1.0000000000

                ONE ELECTRON ENERGY =   -1028.4913150296
                TWO ELECTRON ENERGY =     342.4791590164
           NUCLEAR REPULSION ENERGY =     138.6070287792
                                      ------------------
                       TOTAL ENERGY =    -547.4051272340

 ELECTRON-ELECTRON POTENTIAL ENERGY =     342.4791590164
  NUCLEUS-ELECTRON POTENTIAL ENERGY =   -1581.3516999346
   NUCLEUS-NUCLEUS POTENTIAL ENERGY =     138.6070287792
                                      ------------------
             TOTAL POTENTIAL ENERGY =   -1100.2655121390
               TOTAL KINETIC ENERGY =     552.8603849050
                 VIRIAL RATIO (V/T) =       1.9901326667

          ---------------------------------------
          MULLIKEN AND LOWDIN POPULATION ANALYSES
          ---------------------------------------

     ATOMIC MULLIKEN POPULATION IN EACH MOLECULAR ORBITAL

                      1          2          3          4          5

                  2.000000   2.000000   2.000000   2.000000   2.000000

    1             2.000152  -0.001168   0.001323   2.004386   1.992462
    2            -0.000076   1.000584   0.999338  -0.002193   0.003769
    3            -0.000076   1.000584   0.999338  -0.002193   0.003769

                      6          7          8          9         10

                  2.000000   2.000000   2.000000   2.000000   2.000000

    1             1.999515   1.999474   0.731494   0.601903   0.799957
    2             0.000243   0.000263   0.634253   0.699048   0.600022
    3             0.000243   0.000263   0.634253   0.699048   0.600022

                     11         12         13         14         15

                  2.000000   2.000000   2.000000   2.000000   2.000000

    1             0.796917   0.194897   0.198041   0.311255   0.304020
    2             0.601542   0.902552   0.900979   0.844373   0.847990
    3             0.601542   0.902552   0.900979   0.844373   0.847990

                     16

                  2.000000

    1             2.129831
    2            -0.064915
    3            -0.064915

               ----- POPULATIONS IN EACH AO -----
                             MULLIKEN      LOWDIN
              1  S  1  S      2.00029     1.99584
              2  S  1  S      2.01250     1.89002
              3  S  1  S      0.74726     0.45162
              4  S  1  S      1.72725     0.85110
              5  S  1  X      1.99758     1.95917
              6  S  1  Y      1.99614     1.95609
              7  S  1  Z      1.99628     1.95737
              8  S  1  X      0.73689     0.62881
              9  S  1  Y      0.64740     0.57193
             10  S  1  Z      0.67231     0.60023
             11  S  1  X      0.05291     0.25547
             12  S  1  Y      0.15346     0.24743
             13  S  1  Z      0.16495     0.26104
             14  S  1 XX      0.13697     0.51006
             15  S  1 YY      0.39817     0.34974
             16  S  1 ZZ      0.31125     0.35239
             17  S  1 XY      0.31037     0.39675
             18  S  1 XZ      0.00247     0.39562
             19  S  1 YZ      0.00000     0.00246
             20  O  2  S      1.99898     1.97751
             21  O  2  S      0.82252     0.64226
             22  O  2  S      0.74196     0.46999
             23  O  2  X      1.19352     1.16200
             24  O  2  Y      0.95656     0.88535
             25  O  2  Z      0.97749     0.90853
             26  O  2  X      0.28879     0.49671
             27  O  2  Y      0.47210     0.50606
             28  O  2  Z      0.47173     0.50932
             29  O  2 XX      0.00330     0.23366
             30  O  2 YY      0.00932     0.17453
             31  O  2 ZZ      0.01595     0.17427
             32  O  2 XY      0.01552     0.02118
             33  O  2 XZ      0.00003     0.02198
             34  O  2 YZ      0.00000     0.00008
             35  O  3  S      1.99898     1.97751
             36  O  3  S      0.82252     0.64226
             37  O  3  S      0.74196     0.46999
             38  O  3  X      1.19352     1.16200
             39  O  3  Y      0.95656     0.88535
             40  O  3  Z      0.97749     0.90853
             41  O  3  X      0.28879     0.49671
             42  O  3  Y      0.47210     0.50606
             43  O  3  Z      0.47173     0.50932
             44  O  3 XX      0.00330     0.23366
             45  O  3 YY      0.00932     0.17453
             46  O  3 ZZ      0.01595     0.17427
             47  O  3 XY      0.01552     0.02118
             48  O  3 XZ      0.00003     0.02198
             49  O  3 YZ      0.00000     0.00008

          ----- MULLIKEN ATOMIC OVERLAP POPULATIONS -----
          (OFF-DIAGONAL ELEMENTS NEED TO BE MULTIPLIED BY 2)

             1           2           3

    1   17.0471248
    2   -0.4913337   8.2473500
    3   -0.4913337   0.2117550   8.2473500

          TOTAL MULLIKEN AND LOWDIN ATOMIC POPULATIONS
       ATOM         MULL.POP.    CHARGE          LOW.POP.     CHARGE
    1 S            16.064457   -0.064457        15.633132    0.366868
    2 O             7.967771    0.032229         8.183434   -0.183434
    3 O             7.967771    0.032229         8.183434   -0.183434

          MULLIKEN SPHERICAL HARMONIC POPULATIONS
       ATOM           S       P       D      F      G      H      I    TOTAL
    1 S             6.49    8.42    1.16   0.00   0.00   0.00   0.00   16.06
    2 O             3.56    4.36    0.04   0.00   0.00   0.00   0.00    7.97
    3 O             3.56    4.36    0.04   0.00   0.00   0.00   0.00    7.97

          -------------------------------
          BOND ORDER AND VALENCE ANALYSIS     BOND ORDER THRESHOLD=0.050
          -------------------------------

                   BOND                       BOND                       BOND
  ATOM PAIR DIST  ORDER      ATOM PAIR DIST  ORDER      ATOM PAIR DIST  ORDER
    1   2  1.100  1.959        1   3  1.100  1.959        2   3  2.192  0.106

                       TOTAL       BONDED        FREE
      ATOM            VALENCE     VALENCE     VALENCE
    1 S                 3.918       3.918       0.000
    2 O                 2.065       2.065       0.000
    3 O                 2.065       2.065       0.000

          ---------------------
          ELECTROSTATIC MOMENTS
          ---------------------

 POINT   1           X           Y           Z (BOHR)    CHARGE
                 0.000000    0.000000    0.000000        0.00 (A.U.)
         DX          DY          DZ         /D/  (DEBYE)
     0.000000    0.000000    0.550487    0.550487
 ...... END OF PROPERTY EVALUATION ......
 STEP CPU TIME =     0.00 TOTAL CPU TIME =        4.8 (    0.1 MIN)
 TOTAL WALL CLOCK TIME=        4.8 SECONDS, CPU UTILIZATION IS  99.79%
               580000  WORDS OF DYNAMIC MEMORY USED
 EXECUTION OF GAMESS TERMINATED NORMALLY Thu Feb 26 00:12:21 2015
 DDI: 263624 bytes (0.3 MB / 0 MWords) used by master data server.

 ----------------------------------------
 CPU timing information for all processes
 ========================================
 0: 4.728 + 0.111 = 4.840
 ----------------------------------------
 ddikick.x: exited gracefully.
----- accounting info -----
Files used on the master node dftfe.crc.nd.edu were:
-rw-r--r-- 1 pmehta1 campus   37475 Feb 26 00:12 /tmp/gamess.dat
-rw-r--r-- 1 pmehta1 campus     142 Feb 26 00:12 /tmp/gamess.F05
-rw-r--r-- 1 pmehta1 campus 2340312 Feb 26 00:12 /tmp/gamess.F08
-rw-r--r-- 1 pmehta1 campus 1220440 Feb 26 00:12 /tmp/gamess.F10
Thu Feb 26 00:12:24 EST 2015
0.247u 0.172s 0:08.26 4.9%	0+0k 0+112io 0pf+0w
