----- GAMESS execution script 'rungms' -----
This job is running on host dftfe.crc.nd.edu
under operating system Linux at Thu Feb 26 00:11:07 EST 2015
Available scratch disk space (Kbyte units) at beginning of the job is
Filesystem     1K-blocks     Used Available Use% Mounted on
/dev/sda2      147771864 22808928 117456504  17% /
GAMESS temporary binary files will be written to /tmp
GAMESS supplementary output files will be written to /tmp
Copying input file gamess.inp to your run's scratch directory...

 Distributed Data Interface kickoff program.
 Initiating 1 compute processes on 1 nodes to run the following command:
 /opt/crc/gamess/2012R1/gamess/gamess.00.x gamess 

          ******************************************************
          *         GAMESS VERSION =  1 MAY 2012 (R1)          *
          *             FROM IOWA STATE UNIVERSITY             *
          * M.W.SCHMIDT, K.K.BALDRIDGE, J.A.BOATZ, S.T.ELBERT, *
          *   M.S.GORDON, J.H.JENSEN, S.KOSEKI, N.MATSUNAGA,   *
          *          K.A.NGUYEN, S.J.SU, T.L.WINDUS,           *
          *       TOGETHER WITH M.DUPUIS, J.A.MONTGOMERY       *
          *         J.COMPUT.CHEM.  14, 1347-1363(1993)        *
          **************** 64 BIT LINUX VERSION ****************

  SINCE 1993, STUDENTS AND POSTDOCS WORKING AT IOWA STATE UNIVERSITY
  AND ALSO IN THEIR VARIOUS JOBS AFTER LEAVING ISU HAVE MADE IMPORTANT
  CONTRIBUTIONS TO THE CODE:
     IVANA ADAMOVIC, CHRISTINE AIKENS, YURI ALEXEEV, POOJA ARORA,
     ANDREY ASADCHEV, ROB BELL, PRADIPTA BANDYOPADHYAY, JONATHAN BENTZ,
     BRETT BODE, GALINA CHABAN, WEI CHEN, CHEOL HO CHOI, PAUL DAY,
     ALBERT DEFUSCO, TIM DUDLEY, DMITRI FEDOROV, GRAHAM FLETCHER,
     MARK FREITAG, KURT GLAESEMANN, DAN KEMP, GRANT MERRILL,
     NORIYUKI MINEZAWA, JONATHAN MULLIN, TAKESHI NAGATA,
     SEAN NEDD, HEATHER NETZLOFF, BOSILJKA NJEGIC, RYAN OLSON, MIKE PAK,
     JIM SHOEMAKER, LYUDMILA SLIPCHENKO, SAROM SOK, JIE SONG,
     TETSUYA TAKETSUGU, SIMON WEBB, SOOHAENG YOO, FEDERICO ZAHARIEV

  ADDITIONAL CODE HAS BEEN PROVIDED BY COLLABORATORS IN OTHER GROUPS:
     IOWA STATE UNIVERSITY:
          JOE IVANIC, LAIMUTIS BYTAUTAS, KLAUS RUEDENBERG
     UNIVERSITY OF TOKYO: KIMIHIKO HIRAO, TAKAHITO NAKAJIMA,
          TAKAO TSUNEDA, MUNEAKI KAMIYA, SUSUMU YANAGISAWA,
          KIYOSHI YAGI, MAHITO CHIBA, SEIKEN TOKURA, NAOAKI KAWAKAMI
     UNIVERSITY OF AARHUS: FRANK JENSEN
     UNIVERSITY OF IOWA: VISVALDAS KAIRYS, HUI LI
     NATIONAL INST. OF STANDARDS AND TECHNOLOGY: WALT STEVENS, DAVID GARMER
     UNIVERSITY OF PISA: BENEDETTA MENNUCCI, JACOPO TOMASI
     UNIVERSITY OF MEMPHIS: HENRY KURTZ, PRAKASHAN KORAMBATH
     UNIVERSITY OF ALBERTA: TOBY ZENG, MARIUSZ KLOBUKOWSKI
     UNIVERSITY OF NEW ENGLAND: MARK SPACKMAN
     MIE UNIVERSITY: HIROAKI UMEDA
     MICHIGAN STATE UNIVERSITY:
          KAROL KOWALSKI, MARTA WLOCH, JEFFREY GOUR, JESSE LUTZ, PIOTR PIECUCH
     UNIVERSITY OF SILESIA: MONIKA MUSIAL, STANISLAW KUCHARSKI
     FACULTES UNIVERSITAIRES NOTRE-DAME DE LA PAIX:
          OLIVIER QUINET, BENOIT CHAMPAGNE
     UNIVERSITY OF CALIFORNIA - SANTA BARBARA: BERNARD KIRTMAN
     INSTITUTE FOR MOLECULAR SCIENCE:
          KAZUYA ISHIMURA, MICHIO KATOUDA, AND SHIGERU NAGASE
     UNIVERSITY OF NOTRE DAME: DAN CHIPMAN
     KYUSHU UNIVERSITY:
          HARUYUKI NAKANO,
          FENG LONG GU, JACEK KORCHOWIEC, MARCIN MAKOWSKI, AND YURIKO AOKI,
          HIROTOSHI MORI AND EISAKU MIYOSHI
     PENNSYLVANIA STATE UNIVERSITY:
          TZVETELIN IORDANOV, CHET SWALINA, JONATHAN SKONE,
          SHARON HAMMES-SCHIFFER
     WASEDA UNIVERSITY:
          MASATO KOBAYASHI, TOMOKO AKAMA, TSUGUKI TOUMA,
          TAKESHI YOSHIKAWA, YASUHIRO IKABATA, HIROMI NAKAI
     UNIVERSITY OF NEBRASKA:
          PEIFENG SU, DEJUN SI, NANDUN THELLAMUREGE, YALI WANG, HUI LI
     UNIVERSITY OF ZURICH:
          ROBERTO PEVERATI, KIM BALDRIDGE
     N. COPERNICUS UNIVERSITY AND JACKSON STATE UNIVERSITY:
          MARIA BARYSZ

 EXECUTION OF GAMESS BEGUN Thu Feb 26 00:11:07 2015

            ECHO OF THE FIRST FEW INPUT CARDS -
 INPUT CARD> $BASIS GBASIS=PC1 $END                                                         
 INPUT CARD> $CONTRL COORD=ZMT ISPHER=1 RUNTYP=ENERGY DFTTYP=PBE $END                       
 INPUT CARD>                                                                                
 INPUT CARD> $DATA                                                                          
 INPUT CARD>Title                                                                           
 INPUT CARD>Cnv 2                                                                           
 INPUT CARD>                                                                                
 INPUT CARD>S                                                                               
 INPUT CARD>O 1 1.10                                                                        
 INPUT CARD>O 1 1.10 2 90.0                                                                 
 INPUT CARD> $END                                                                           
    1000000 WORDS OF MEMORY AVAILABLE

     BASIS OPTIONS
     -------------
     GBASIS=PC1          IGAUSS=       0      POLAR=NONE    
     NDFUNC=       0     NFFUNC=       0     DIFFSP=       F
     NPFUNC=       0      DIFFS=       F     BASNAM=        


     RUN TITLE
     ---------
 Title                                                                           

 THE POINT GROUP OF THE MOLECULE IS CNV     
 THE ORDER OF THE PRINCIPAL AXIS IS     2

 YOUR FULLY SUBSTITUTED Z-MATRIX IS
 S   
 O      1   1.1000000
 O      1   1.1000000  2   90.0000

 THE MOMENTS OF INERTIA ARE (AMU-ANGSTROM**2)
 IXX=     9.674   IYY=    19.354   IZZ=    29.028

 ATOM      ATOMIC                      COORDINATES (BOHR)
           CHARGE         X                   Y                   Z
 S          16.0     0.0000000000        0.0000000000       -0.7351348832
 O           8.0    -1.4698618666        0.0000000000        0.7347269833
 O           8.0     1.4698618666        0.0000000000        0.7347269833

          INTERNUCLEAR DISTANCES (ANGS.)
          ------------------------------

                1 S          2 O          3 O     

   1 S       0.0000000    1.1000000 *  1.1000000 *
   2 O       1.1000000 *  0.0000000    1.5556349 *
   3 O       1.1000000 *  1.5556349 *  0.0000000  

  * ... LESS THAN  3.000


     ATOMIC BASIS SET
     ----------------
 THE CONTRACTED PRIMITIVE FUNCTIONS HAVE BEEN UNNORMALIZED
 THE CONTRACTED BASIS FUNCTIONS ARE NOW NORMALIZED TO UNITY

  SHELL TYPE  PRIMITIVE        EXPONENT          CONTRACTION COEFFICIENT(S)

 S         

      1   S       1         55510.0000000    0.000587229760
      1   S       2          8326.7000000    0.004532413947
      1   S       3          1895.6000000    0.023265261648
      1   S       4           536.7700000    0.089696133027
      1   S       5           174.6700000    0.254098332277
      1   S       6            62.5780000    0.438665087637
      1   S       7            23.5730000    0.314547135094
      1   S       8             5.8908000    0.032727897102

      2   S       9          8326.7000000   -0.000019755715
      2   S      10          1895.6000000   -0.000043822381
      2   S      11           536.7700000   -0.001730264906
      2   S      12           174.6700000   -0.009381263460
      2   S      13            62.5780000   -0.064050766303
      2   S      14            23.5730000   -0.082478179196
      2   S      15             5.8908000    0.478342956889
      2   S      16             2.1852000    0.626896670208

      3   S      17          1895.6000000    0.000016227260
      3   S      18           536.7700000    0.000191135619
      3   S      19           174.6700000    0.001952069674
      3   S      20            62.5780000    0.010578701087
      3   S      21            23.5730000    0.022164934551
      3   S      22             5.8908000   -0.184968323118
      3   S      23             2.1852000   -0.480920750976
      3   S      24             0.4528200    1.243822243872

      4   S      25             0.1620200    1.000000000000

      5   P      26           395.4500000    0.004642761329
      5   P      27            92.8340000    0.036023396489
      5   P      28            29.2660000    0.149058869978
      5   P      29            10.5950000    0.360033266263
      5   P      30             4.0272000    0.455756476221
      5   P      31             1.5484000    0.206167664178

      6   P      32            92.8340000    0.000169901442
      6   P      33            29.2660000   -0.002541839934
      6   P      34            10.5950000   -0.007867614595
      6   P      35             4.0272000   -0.037231009184
      6   P      36             1.5484000    0.161417246830
      6   P      37             0.4613400    0.902230419976

      7   P      38             0.1313100    1.000000000000

      8   D      39             0.5500000    1.000000000000

 O         

     15   S      40          2306.7000000    0.005424388755
     15   S      41           347.1500000    0.040474749465
     15   S      42            78.8900000    0.180219634554
     15   S      43            21.8760000    0.462370311787
     15   S      44             6.6646000    0.454888396263

     16   S      45           347.1500000   -0.000655003786
     16   S      46            78.8900000   -0.005362052952
     16   S      47            21.8760000   -0.074902158894
     16   S      48             6.6646000   -0.181442579655
     16   S      49             1.0669000    1.102006874042

     17   S      50             0.3070000    1.000000000000

     18   P      51            17.0220000    0.068979967443
     18   P      52             3.6838000    0.351985516325
     18   P      53             0.9923400    0.724036547822

     19   P      54             0.2448700    1.000000000000

     20   D      55             1.0000000    1.000000000000

 TOTAL NUMBER OF BASIS SET SHELLS             =   20
 NUMBER OF CARTESIAN GAUSSIAN BASIS FUNCTIONS =   49
 NOTE: THIS RUN WILL RESTRICT THE MO VARIATION SPACE TO SPHERICAL HARMONICS.
 THE NUMBER OF ORBITALS KEPT IN THE VARIATIONAL SPACE WILL BE PRINTED LATER.
 NUMBER OF ELECTRONS                          =   32
 CHARGE OF MOLECULE                           =    0
 SPIN MULTIPLICITY                            =    1
 NUMBER OF OCCUPIED ORBITALS (ALPHA)          =   16
 NUMBER OF OCCUPIED ORBITALS (BETA )          =   16
 TOTAL NUMBER OF ATOMS                        =    3
 THE NUCLEAR REPULSION ENERGY IS      144.9247312493

     LEBEDEV GRID-BASED DFT OPTIONS
     ------------------------------
     DFTTYP=PBE     
     NRAD  =      96     NLEB  =     302
     NRAD0 =      24     NLEB0 =     110
     SWOFF =    5.00E-03 (PURE SCF -> DFT)
     SWITCH=    3.00E-04 (COARSE -> TIGHT GRID)
     THRESH=    0.00E+00 GTHRE=    1.00E+00

 GRIMME'S EMPIRICAL DISPERSION CORRECTION= F

     $CONTRL OPTIONS
     ---------------
 SCFTYP=RHF          RUNTYP=ENERGY       EXETYP=RUN     
 MPLEVL=       0     CITYP =NONE         CCTYP =NONE         VBTYP =NONE    
 DFTTYP=PBE          TDDFT =NONE    
 MULT  =       1     ICHARG=       0     NZVAR =       0     COORD =ZMT     
 PP    =NONE         RELWFN=NONE         LOCAL =NONE         NUMGRD=       F
 ISPHER=       1     NOSYM =       0     MAXIT =      30     UNITS =ANGS    
 PLTORB=       F     MOLPLT=       F     AIMPAC=       F     FRIEND=        
 NPRINT=       7     IREST =       0     GEOM  =INPUT   
 NORMF =       0     NORMP =       0     ITOL  =      20     ICUT  =       9
 INTTYP=BEST         GRDTYP=BEST         QMTTOL= 1.0E-06

     $SYSTEM OPTIONS
     ---------------
  REPLICATED MEMORY=     1000000 WORDS (ON EVERY NODE).
 DISTRIBUTED MEMDDI=           0 MILLION WORDS IN AGGREGATE,
 MEMDDI DISTRIBUTED OVER   1 PROCESSORS IS           0 WORDS/PROCESSOR.
 TOTAL MEMORY REQUESTED ON EACH PROCESSOR=     1000000 WORDS.
 TIMLIM=      525600.00 MINUTES, OR     365.0 DAYS.
 PARALL= F  BALTYP=  DLB     KDIAG=    0  COREFL= F
 MXSEQ2=     300 MXSEQ3=     150

          ----------------
          PROPERTIES INPUT
          ----------------

     MOMENTS            FIELD           POTENTIAL          DENSITY
 IEMOM =       1   IEFLD =       0   IEPOT =       0   IEDEN =       0
 WHERE =COMASS     WHERE =NUCLEI     WHERE =NUCLEI     WHERE =NUCLEI  
 OUTPUT=BOTH       OUTPUT=BOTH       OUTPUT=BOTH       OUTPUT=BOTH    
 IEMINT=       0   IEFINT=       0                     IEDINT=       0
                                                       MORB  =       0
          EXTRAPOLATION IN EFFECT
          DIIS IN EFFECT
 ORBITAL PRINTING OPTION: NPREO=     1    49     2     1

     -------------------------------
     INTEGRAL TRANSFORMATION OPTIONS
     -------------------------------
     NWORD  =            0
     CUTOFF = 1.0E-09     MPTRAN =       0
     DIRTRF =       F     AOINTS =DUP     

          ----------------------
          INTEGRAL INPUT OPTIONS
          ----------------------
 NOPK  =       1 NORDER=       0 SCHWRZ=       F

   --- ENCODED Z MATRIX ---
 COORD  TYPE   I   J   K   L   M   N
    1      1    3   1
    2      1    2   1
    3      2    2   1   3

 THE DETERMINANT OF THE G MATRIX IS 10**(    -4)

 THE DETERMINANT OF THE G MATRIX IS 10**(    -4)
 * * * WARNING * * *
 YOUR B MATRIX HAS A SMALL DETERMINANT.
 THIS SUGGESTS YOU MAY HAVE BADLY CHOSEN COORDINATES.

     ------------------------------------------
     THE POINT GROUP IS CNV, NAXIS= 2, ORDER= 4
     ------------------------------------------

 -- VARIATIONAL SPACE WILL BE RESTRICTED TO PURE SPHERICAL HARMONICS ONLY --
 AFTER EXCLUDING CONTAMINANT COMBINATIONS FROM THE CARTESIAN GAUSSIAN BASIS
 SET, THE NUMBER OF SPHERICAL HARMONICS KEPT IN THE VARIATION SPACE IS   46

     DIMENSIONS OF THE SYMMETRY SUBSPACES ARE
 A1  =   19     A2  =    5     B1  =   14     B2  =    8

 ..... DONE SETTING UP THE RUN .....
 STEP CPU TIME =     0.10 TOTAL CPU TIME =        0.1 (    0.0 MIN)
 TOTAL WALL CLOCK TIME=        0.1 SECONDS, CPU UTILIZATION IS  90.91%

          ********************
          1 ELECTRON INTEGRALS
          ********************
 ...... END OF ONE-ELECTRON INTEGRALS ......
 STEP CPU TIME =     0.00 TOTAL CPU TIME =        0.1 (    0.0 MIN)
 TOTAL WALL CLOCK TIME=        0.1 SECONDS, CPU UTILIZATION IS  90.91%

          -------------
          GUESS OPTIONS
          -------------
          GUESS =HUCKEL            NORB  =       0          NORDER=       0
          MIX   =       F          PRTMO =       F          PUNMO =       F
          TOLZ  = 1.0E-08          TOLE  = 1.0E-05
          SYMDEN=       F          PURIFY=       F

 INITIAL GUESS ORBITALS GENERATED BY HUCKEL   ROUTINE.
 HUCKEL GUESS REQUIRES     21583 WORDS.

 STATISTICS FOR GENERATION OF SYMMETRY ORBITAL -Q- MATRIX
 NUMBER OF CARTESIAN ATOMIC ORBITALS=         49
 NUMBER OF SPHERICAL CONTAMINANTS DROPPED=     3
 NUMBER OF LINEARLY DEPENDENT MOS DROPPED=     0
 TOTAL NUMBER OF MOS IN VARIATION SPACE=      46

 SYMMETRIES FOR INITIAL GUESS ORBITALS FOLLOW.   BOTH SET(S).
    16 ORBITALS ARE OCCUPIED (    7 CORE ORBITALS).
     8=A1       9=B1      10=A1      11=B2      12=A1      13=B1      14=A2  
    15=A1      16=B1      17=B2      18=B1      19=A1      20=A1      21=A1  
    22=A1      23=A1      24=A1      25=A1      26=A1  
 ...... END OF INITIAL ORBITAL SELECTION ......
 STEP CPU TIME =     0.01 TOTAL CPU TIME =        0.1 (    0.0 MIN)
 TOTAL WALL CLOCK TIME=        0.1 SECONDS, CPU UTILIZATION IS  91.67%

                    ----------------------
                    AO INTEGRAL TECHNOLOGY
                    ----------------------
     S,P,L SHELL ROTATED AXIS INTEGRALS, REPROGRAMMED BY
        KAZUYA ISHIMURA (IMS) AND JOSE SIERRA (SYNSTAR).
     S,P,D,L SHELL ROTATED AXIS INTEGRALS PROGRAMMED BY
        KAZUYA ISHIMURA (INSTITUTE FOR MOLECULAR SCIENCE).
     S,P,D,F,G SHELL TO TOTAL QUARTET ANGULAR MOMENTUM SUM 5,
        ERIC PROGRAM BY GRAHAM FLETCHER (ELORET AND NASA ADVANCED
        SUPERCOMPUTING DIVISION, AMES RESEARCH CENTER).
     S,P,D,F,G,L SHELL GENERAL RYS QUADRATURE PROGRAMMED BY
        MICHEL DUPUIS (PACIFIC NORTHWEST NATIONAL LABORATORY).

          --------------------
          2 ELECTRON INTEGRALS
          --------------------

 THE -PK- OPTION IS OFF, THE INTEGRALS ARE NOT IN SUPERMATRIX FORM.
 STORING   15000 INTEGRALS/RECORD ON DISK, USING 12 BYTES/INTEGRAL.
 TWO ELECTRON INTEGRAL EVALUATION REQUIRES   90606 WORDS OF MEMORY.
 II,JST,KST,LST =  1  1  1  1 NREC =         1 INTLOC =    1
 II,JST,KST,LST =  2  1  1  1 NREC =         1 INTLOC =    2
 II,JST,KST,LST =  3  1  1  1 NREC =         1 INTLOC =    7
 II,JST,KST,LST =  4  1  1  1 NREC =         1 INTLOC =   22
 II,JST,KST,LST =  5  1  1  1 NREC =         1 INTLOC =   56
 II,JST,KST,LST =  6  1  1  1 NREC =         1 INTLOC =  125
 II,JST,KST,LST =  7  1  1  1 NREC =         1 INTLOC =  329
 II,JST,KST,LST =  8  1  1  1 NREC =         1 INTLOC =  776
 II,JST,KST,LST =  9  1  1  1 NREC =         1 INTLOC = 2864
 II,JST,KST,LST = 10  1  1  1 NREC =         1 INTLOC = 2864
 II,JST,KST,LST = 11  1  1  1 NREC =         1 INTLOC = 2864
 II,JST,KST,LST = 12  1  1  1 NREC =         1 INTLOC = 2864
 II,JST,KST,LST = 13  1  1  1 NREC =         1 INTLOC = 2864
 II,JST,KST,LST = 14  1  1  1 NREC =         1 INTLOC = 2864
 II,JST,KST,LST = 15  1  1  1 NREC =         1 INTLOC = 2864
 II,JST,KST,LST = 16  1  1  1 NREC =         1 INTLOC = 5265
 II,JST,KST,LST = 17  1  1  1 NREC =         1 INTLOC = 8664
 II,JST,KST,LST = 18  1  1  1 NREC =         1 INTLOC =13173
 II,JST,KST,LST = 19  1  1  1 NREC =         3 INTLOC = 1966
 II,JST,KST,LST = 20  1  1  1 NREC =         5 INTLOC = 3633
 TOTAL NUMBER OF NONZERO TWO-ELECTRON INTEGRALS =              184712
         13 INTEGRAL RECORDS WERE STORED ON DISK FILE  8.
  ...... END OF TWO-ELECTRON INTEGRALS .....
 STEP CPU TIME =     0.17 TOTAL CPU TIME =        0.3 (    0.0 MIN)
 TOTAL WALL CLOCK TIME=        0.3 SECONDS, CPU UTILIZATION IS  96.55%

          --------------------------
               R-PBE SCF CALCULATION
          --------------------------

     NUCLEAR ENERGY =       144.9247312493
     MAXIT =   30     NPUNCH=    2
     EXTRAP=T  DAMP=F  SHIFT=F  RSTRCT=F  DIIS=T  DEM=F  SOSCF=F
         DENSITY MATRIX CONVERGENCE THRESHOLD=  1.00E-05
     COARSE -> FINE DFT GRID SWITCH THRESHOLD=  3.00E-04 (SWITCH IN $DFT)
                   HF -> DFT SWITCH THRESHOLD=  5.00E-03 (SWOFF IN $DFT)
     MEMORY REQUIRED FOR RHF ITERS=    183108 WORDS.

 DFT CODE IS SWITCHING FROM THE FINE GRID NRAD= 96,  NLEB=  302
                      TO THE COARSE GRID NRAD0= 24, NLEB0=  110

     EXCHANGE FUNCTIONAL   =PBE       
     CORRELATION FUNCTIONAL=PBE       
     DFT THRESHOLD         =.460E-07
     GRID CHANGE THRESHOLD =.300E-03
 FOR AN EULER-MACLAURIN QUADRATURE USING  96 RADIAL POINTS:
 SMALLEST GAUSSIAN PRIMITIVE EXPONENT=        0.1313100000 OF TYPE -P-
 ON ATOM NUMBER   1 HAS RADIAL NORMALIZATION=  1.000000
  LARGEST GAUSSIAN PRIMITIVE EXPONENT=    55510.0000000000 OF TYPE -S-
 ON ATOM NUMBER   1 HAS RADIAL NORMALIZATION=  0.999999
 DFT IS SWITCHED OFF, PERFORMING PURE SCF UNTIL SWOFF THRESHOLD IS REACHED.

 ITER EX DEM     TOTAL ENERGY        E CHANGE  DENSITY CHANGE    DIIS ERROR
   1  0  0     -544.8070977145  -544.8070977145   0.281712379   0.878909087
          * * *   INITIATING DIIS PROCEDURE   * * *
   2  1  0     -546.1597045771    -1.3526068626   0.417358513   0.154088525
   3  2  0     -546.2349090843    -0.0752045073   0.037084158   0.048766050
   4  3  0     -546.2430540367    -0.0081449524   0.031612037   0.017991322
   5  4  0     -546.2445218205    -0.0014677838   0.011452000   0.012508340
   6  5  0     -546.2448175066    -0.0002956861   0.005477448   0.003082758
   7  6  0     -546.2448629244    -0.0000454178   0.000332598   0.000225727
 CONVERGED TO SWOFF, SO DFT CALCULATION IS NOW SWITCHED ON.
          * * *   INITIATING DIIS PROCEDURE   * * *
   8  7  0     -547.3269487819    -1.0820858575   0.120574007   0.089587415
   9  8  0     -547.3402171135    -0.0132683317   0.091674111   0.049199190
  10  9  0     -547.3378000864     0.0024170271   0.036222452   0.064777867
  11 10  0     -547.3474505903    -0.0096505038   0.012964472   0.005679836
  12 11  0     -547.3475499730    -0.0000993827   0.000900256   0.000561525
  13 12  0     -547.3475506671    -0.0000006941   0.000063922   0.000057312
 DFT CODE IS SWITCHING BACK TO THE FINE GRID
          * * *   INITIATING DIIS PROCEDURE   * * *
  14 13  0     -547.3067748503     0.0407758168   0.010922566   0.011826491
  15 14  0     -547.3070384621    -0.0002636118   0.002834659   0.003005994
  16 15  0     -547.3070380222     0.0000004399   0.002169473   0.003247898
  17 16  0     -547.3070530332    -0.0000150110   0.000921475   0.000745728
  18 17  0     -547.3070546782    -0.0000016450   0.000242135   0.000068306
  19 18  0     -547.3070546983    -0.0000000201   0.000008675   0.000003307
  20 19  0     -547.3070546983     0.0000000000   0.000000360   0.000000882
  21 20  0     -547.3070546983     0.0000000000   0.000000143   0.000000029

          -----------------
          DENSITY CONVERGED
          -----------------
     TIME TO FORM FOCK OPERATORS=       4.6 SECONDS (       0.2 SEC/ITER)
     TIME TO SOLVE SCF EQUATIONS=       0.0 SECONDS (       0.0 SEC/ITER)

 FINAL R-PBE ENERGY IS     -547.3070546983 AFTER  21 ITERATIONS
 DFT EXCHANGE + CORRELATION ENERGY =       -43.4398565759
 TOTAL ELECTRON NUMBER             =        31.9999523835

          ------------
          EIGENVECTORS
          ------------

                      1          2          3          4          5
                  -88.1177   -18.6957   -18.6956    -7.8127    -5.8282
                     A1         A1         B1         A1         B1  
    1  S  1  S    1.002971  -0.000148   0.000000  -0.273523   0.000000
    2  S  1  S   -0.010089  -0.000260   0.000000   1.038247   0.000000
    3  S  1  S    0.002104  -0.002973   0.000000   0.044807   0.000000
    4  S  1  S   -0.000473   0.010457   0.000000  -0.008526   0.000000
    5  S  1  X    0.000000   0.000000  -0.000254   0.000000   0.993349
    6  S  1  Y    0.000000   0.000000   0.000000   0.000000   0.000000
    7  S  1  Z    0.000022   0.000209   0.000000   0.018114   0.000000
    8  S  1  X    0.000000   0.000000   0.002904   0.000000   0.014277
    9  S  1  Y    0.000000   0.000000   0.000000   0.000000   0.000000
   10  S  1  Z    0.000400  -0.002951   0.000000   0.004710   0.000000
   11  S  1  X    0.000000   0.000000  -0.002440   0.000000   0.000046
   12  S  1  Y    0.000000   0.000000   0.000000   0.000000   0.000000
   13  S  1  Z    0.000020   0.004560   0.000000   0.000118   0.000000
   14  S  1 XX    0.000065   0.000023   0.000000   0.000442   0.000000
   15  S  1 YY   -0.000144   0.001730   0.000000  -0.001441   0.000000
   16  S  1 ZZ    0.000079  -0.001753   0.000000   0.000998   0.000000
   17  S  1 XY    0.000000   0.000000   0.000000   0.000000   0.000000
   18  S  1 XZ    0.000000   0.000000   0.003780   0.000000   0.003890
   19  S  1 YZ    0.000000   0.000000   0.000000   0.000000   0.000000
   20  O  2  S   -0.000009   0.703076   0.703200  -0.002359   0.003572
   21  O  2  S   -0.000112   0.028167   0.028472   0.001009  -0.003060
   22  O  2  S   -0.000303  -0.013247  -0.012408  -0.002352   0.001368
   23  O  2  X   -0.000120   0.002453   0.001799   0.001781  -0.003428
   24  O  2  Y    0.000000   0.000000   0.000000   0.000000   0.000000
   25  O  2  Z    0.000103  -0.001824  -0.002391  -0.002108   0.004419
   26  O  2  X   -0.000188  -0.001226  -0.003078  -0.001957   0.000310
   27  O  2  Y    0.000000   0.000000   0.000000   0.000000   0.000000
   28  O  2  Z    0.000210   0.001734   0.000983   0.002090  -0.000876
   29  O  2 XX   -0.000021   0.000773  -0.000651   0.000320  -0.000573
   30  O  2 YY    0.000014  -0.000512   0.000130  -0.001237   0.001772
   31  O  2 ZZ    0.000007  -0.000261   0.000521   0.000917  -0.001199
   32  O  2 XY    0.000000   0.000000   0.000000   0.000000   0.000000
   33  O  2 XZ    0.000015  -0.000506  -0.000757  -0.002241   0.002669
   34  O  2 YZ    0.000000   0.000000   0.000000   0.000000   0.000000
   35  O  3  S   -0.000009   0.703076  -0.703200  -0.002359  -0.003572
   36  O  3  S   -0.000112   0.028167  -0.028472   0.001009   0.003060
   37  O  3  S   -0.000303  -0.013247   0.012408  -0.002352  -0.001368
   38  O  3  X    0.000120  -0.002453   0.001799  -0.001781  -0.003428
   39  O  3  Y    0.000000   0.000000   0.000000   0.000000   0.000000
   40  O  3  Z    0.000103  -0.001824   0.002391  -0.002108  -0.004419
   41  O  3  X    0.000188   0.001226  -0.003078   0.001957   0.000310
   42  O  3  Y    0.000000   0.000000   0.000000   0.000000   0.000000
   43  O  3  Z    0.000210   0.001734  -0.000983   0.002090   0.000876
   44  O  3 XX   -0.000021   0.000773   0.000651   0.000320   0.000573
   45  O  3 YY    0.000014  -0.000512  -0.000130  -0.001237  -0.001772
   46  O  3 ZZ    0.000007  -0.000261  -0.000521   0.000917   0.001199
   47  O  3 XY    0.000000   0.000000   0.000000   0.000000   0.000000
   48  O  3 XZ   -0.000015   0.000506  -0.000757   0.002241   0.002669
   49  O  3 YZ    0.000000   0.000000   0.000000   0.000000   0.000000

                      6          7          8          9         10
                   -5.8238    -5.8210    -1.3011    -1.0124    -0.5974
                     A1         B2         A1         B1         A1  
    1  S  1  S    0.006163   0.000000   0.061487   0.000000   0.046751
    2  S  1  S   -0.023740   0.000000  -0.206908   0.000000  -0.137570
    3  S  1  S    0.001300   0.000000   0.291380   0.000000   0.284113
    4  S  1  S    0.003104   0.000000   0.066188   0.000000   0.313293
    5  S  1  X    0.000000   0.000000   0.000000  -0.218977   0.000000
    6  S  1  Y    0.000000   0.995645   0.000000   0.000000   0.000000
    7  S  1  Z    0.993264   0.000000  -0.153859   0.000000   0.144879
    8  S  1  X    0.000000   0.000000   0.000000   0.341940   0.000000
    9  S  1  Y    0.000000   0.012392   0.000000   0.000000   0.000000
   10  S  1  Z    0.014432   0.000000   0.204692   0.000000  -0.305748
   11  S  1  X    0.000000   0.000000   0.000000   0.027374   0.000000
   12  S  1  Y    0.000000  -0.000766   0.000000   0.000000   0.000000
   13  S  1  Z    0.000401   0.000000  -0.006757   0.000000  -0.087553
   14  S  1 XX   -0.001191   0.000000   0.006463   0.000000   0.096995
   15  S  1 YY   -0.002146   0.000000  -0.046374   0.000000   0.022091
   16  S  1 ZZ    0.003337   0.000000   0.039911   0.000000  -0.119086
   17  S  1 XY    0.000000   0.000000   0.000000   0.000000   0.000000
   18  S  1 XZ    0.000000   0.000000   0.000000   0.128729   0.000000
   19  S  1 YZ    0.000000   0.001814   0.000000   0.000000   0.000000
   20  O  2  S   -0.003390   0.000000  -0.130707   0.154957   0.028656
   21  O  2  S    0.003545   0.000000   0.228979  -0.272535  -0.042510
   22  O  2  S   -0.001931   0.000000   0.182502  -0.272720  -0.093694
   23  O  2  X    0.004106   0.000000   0.143382  -0.070187  -0.172446
   24  O  2  Y    0.000000   0.001057   0.000000   0.000000   0.000000
   25  O  2  Z   -0.003562   0.000000  -0.099271   0.154980  -0.246070
   26  O  2  X   -0.001083   0.000000   0.021507  -0.015909  -0.076934
   27  O  2  Y    0.000000  -0.000619   0.000000   0.000000   0.000000
   28  O  2  Z    0.000125   0.000000  -0.017476   0.023474  -0.102815
   29  O  2 XX    0.000724   0.000000   0.009391  -0.003081  -0.025951
   30  O  2 YY   -0.001319   0.000000  -0.013862   0.015287   0.003210
   31  O  2 ZZ    0.000595   0.000000   0.004470  -0.012206   0.022740
   32  O  2 XY    0.000000   0.000463   0.000000   0.000000   0.000000
   33  O  2 XZ   -0.002422   0.000000  -0.022444   0.027534  -0.006785
   34  O  2 YZ    0.000000  -0.000594   0.000000   0.000000   0.000000
   35  O  3  S   -0.003390   0.000000  -0.130707  -0.154957   0.028656
   36  O  3  S    0.003545   0.000000   0.228979   0.272535  -0.042510
   37  O  3  S   -0.001931   0.000000   0.182502   0.272720  -0.093694
   38  O  3  X   -0.004106   0.000000  -0.143382  -0.070187   0.172446
   39  O  3  Y    0.000000   0.001057   0.000000   0.000000   0.000000
   40  O  3  Z   -0.003562   0.000000  -0.099271  -0.154980  -0.246070
   41  O  3  X    0.001083   0.000000  -0.021507  -0.015909   0.076934
   42  O  3  Y    0.000000  -0.000619   0.000000   0.000000   0.000000
   43  O  3  Z    0.000125   0.000000  -0.017476  -0.023474  -0.102815
   44  O  3 XX    0.000724   0.000000   0.009391   0.003081  -0.025951
   45  O  3 YY   -0.001319   0.000000  -0.013862  -0.015287   0.003210
   46  O  3 ZZ    0.000595   0.000000   0.004470   0.012206   0.022740
   47  O  3 XY    0.000000  -0.000463   0.000000   0.000000   0.000000
   48  O  3 XZ    0.002422   0.000000   0.022444   0.027534   0.006785
   49  O  3 YZ    0.000000  -0.000594   0.000000   0.000000   0.000000

                     11         12         13         14         15
                   -0.5912    -0.4666    -0.4034    -0.3428    -0.3162
                     B2         A1         B1         A2         A1  
    1  S  1  S    0.000000   0.034294   0.000000   0.000000   0.021295
    2  S  1  S    0.000000  -0.084062   0.000000   0.000000  -0.082596
    3  S  1  S    0.000000   0.226663   0.000000   0.000000   0.121772
    4  S  1  S    0.000000  -0.040867   0.000000   0.000000   0.699235
    5  S  1  X    0.000000   0.000000  -0.162278   0.000000   0.000000
    6  S  1  Y   -0.210357   0.000000   0.000000   0.000000   0.000000
    7  S  1  Z    0.000000  -0.071364   0.000000   0.000000   0.186817
    8  S  1  X    0.000000   0.000000   0.319469   0.000000   0.000000
    9  S  1  Y    0.448708   0.000000   0.000000   0.000000   0.000000
   10  S  1  Z    0.000000   0.120348   0.000000   0.000000  -0.380680
   11  S  1  X    0.000000   0.000000   0.016713   0.000000   0.000000
   12  S  1  Y    0.114401   0.000000   0.000000   0.000000   0.000000
   13  S  1  Z    0.000000  -0.073160   0.000000   0.000000  -0.188348
   14  S  1 XX    0.000000  -0.071513   0.000000   0.000000  -0.146005
   15  S  1 YY    0.000000   0.004992   0.000000   0.000000   0.062916
   16  S  1 ZZ    0.000000   0.066521   0.000000   0.000000   0.083088
   17  S  1 XY    0.000000   0.000000   0.000000  -0.183707   0.000000
   18  S  1 XZ    0.000000   0.000000   0.035464   0.000000   0.000000
   19  S  1 YZ    0.108365   0.000000   0.000000   0.000000   0.000000
   20  O  2  S    0.000000   0.085649  -0.070659   0.000000   0.019169
   21  O  2  S    0.000000  -0.176357   0.152541   0.000000  -0.038562
   22  O  2  S    0.000000  -0.318356   0.309664   0.000000  -0.094722
   23  O  2  X    0.000000   0.350642  -0.184396   0.000000   0.044849
   24  O  2  Y    0.334778   0.000000   0.000000   0.474532   0.000000
   25  O  2  Z    0.000000  -0.117837   0.362208   0.000000   0.343522
   26  O  2  X    0.000000   0.177349  -0.104759   0.000000   0.043935
   27  O  2  Y    0.149039   0.000000   0.000000   0.321731   0.000000
   28  O  2  Z    0.000000  -0.064881   0.192462   0.000000   0.243237
   29  O  2 XX    0.000000   0.020313   0.000311   0.000000   0.009843
   30  O  2 YY    0.000000  -0.014208   0.018741   0.000000   0.008894
   31  O  2 ZZ    0.000000  -0.006104  -0.019052   0.000000  -0.018736
   32  O  2 XY    0.025844   0.000000   0.000000   0.020710   0.000000
   33  O  2 XZ    0.000000  -0.020553   0.022437   0.000000   0.025226
   34  O  2 YZ   -0.020491   0.000000   0.000000  -0.028534   0.000000
   35  O  3  S    0.000000   0.085649   0.070659   0.000000   0.019169
   36  O  3  S    0.000000  -0.176357  -0.152541   0.000000  -0.038562
   37  O  3  S    0.000000  -0.318356  -0.309664   0.000000  -0.094722
   38  O  3  X    0.000000  -0.350642  -0.184396   0.000000  -0.044849
   39  O  3  Y    0.334778   0.000000   0.000000  -0.474532   0.000000
   40  O  3  Z    0.000000  -0.117837  -0.362208   0.000000   0.343522
   41  O  3  X    0.000000  -0.177349  -0.104759   0.000000  -0.043935
   42  O  3  Y    0.149039   0.000000   0.000000  -0.321731   0.000000
   43  O  3  Z    0.000000  -0.064881  -0.192462   0.000000   0.243237
   44  O  3 XX    0.000000   0.020313  -0.000311   0.000000   0.009843
   45  O  3 YY    0.000000  -0.014208  -0.018741   0.000000   0.008894
   46  O  3 ZZ    0.000000  -0.006104   0.019052   0.000000  -0.018736
   47  O  3 XY   -0.025844   0.000000   0.000000   0.020710   0.000000
   48  O  3 XZ    0.000000   0.020553   0.022437   0.000000  -0.025226
   49  O  3 YZ   -0.020491   0.000000   0.000000   0.028534   0.000000

                     16         17         18         19         20
                   -0.2056    -0.0810     0.0833     0.1244     0.3315
                     B1         B2         B1         A1         B2  
    1  S  1  S    0.000000   0.000000   0.000000   0.005429   0.000000
    2  S  1  S    0.000000   0.000000   0.000000  -0.121749   0.000000
    3  S  1  S    0.000000   0.000000   0.000000  -0.085419   0.000000
    4  S  1  S    0.000000   0.000000   0.000000   1.722941   0.000000
    5  S  1  X   -0.000431   0.000000  -0.091728   0.000000   0.000000
    6  S  1  Y    0.000000  -0.185617   0.000000   0.000000  -0.303015
    7  S  1  Z    0.000000   0.000000   0.000000  -0.018100   0.000000
    8  S  1  X    0.048234   0.000000   0.257840   0.000000   0.000000
    9  S  1  Y    0.000000   0.496839   0.000000   0.000000   1.137054
   10  S  1  Z    0.000000   0.000000   0.000000   0.123067   0.000000
   11  S  1  X    0.236095   0.000000   1.309168   0.000000   0.000000
   12  S  1  Y    0.000000   0.812473   0.000000   0.000000  -1.098223
   13  S  1  Z    0.000000   0.000000   0.000000   1.517796   0.000000
   14  S  1 XX    0.000000   0.000000   0.000000  -0.100569   0.000000
   15  S  1 YY    0.000000   0.000000   0.000000   0.286718   0.000000
   16  S  1 ZZ    0.000000   0.000000   0.000000  -0.186149   0.000000
   17  S  1 XY    0.000000   0.000000   0.000000   0.000000   0.000000
   18  S  1 XZ   -0.176366   0.000000  -0.226153   0.000000   0.000000
   19  S  1 YZ    0.000000  -0.191874   0.000000   0.000000   0.024561
   20  O  2  S   -0.043173   0.000000  -0.039304   0.068201   0.000000
   21  O  2  S    0.080474   0.000000   0.026007  -0.057572   0.000000
   22  O  2  S    0.220956   0.000000   0.467221  -1.101619   0.000000
   23  O  2  X    0.477676   0.000000  -0.189662  -0.046810   0.000000
   24  O  2  Y    0.000000  -0.290403   0.000000   0.000000  -0.029484
   25  O  2  Z    0.142467   0.000000  -0.259353   0.026282   0.000000
   26  O  2  X    0.328916   0.000000  -0.342668  -0.173041   0.000000
   27  O  2  Y    0.000000  -0.379571   0.000000   0.000000  -0.048592
   28  O  2  Z    0.148041   0.000000  -0.322338   0.012594   0.000000
   29  O  2 XX    0.025677   0.000000  -0.002755  -0.020248   0.000000
   30  O  2 YY   -0.005462   0.000000  -0.008483   0.029364   0.000000
   31  O  2 ZZ   -0.020216   0.000000   0.011237  -0.009115   0.000000
   32  O  2 XY    0.000000  -0.013689   0.000000   0.000000   0.028995
   33  O  2 XZ   -0.035224   0.000000  -0.009560   0.006509   0.000000
   34  O  2 YZ    0.000000  -0.002927   0.000000   0.000000  -0.028552
   35  O  3  S    0.043173   0.000000   0.039304   0.068201   0.000000
   36  O  3  S   -0.080474   0.000000  -0.026007  -0.057572   0.000000
   37  O  3  S   -0.220956   0.000000  -0.467221  -1.101619   0.000000
   38  O  3  X    0.477676   0.000000  -0.189662   0.046810   0.000000
   39  O  3  Y    0.000000  -0.290403   0.000000   0.000000  -0.029484
   40  O  3  Z   -0.142467   0.000000   0.259353   0.026282   0.000000
   41  O  3  X    0.328916   0.000000  -0.342668   0.173041   0.000000
   42  O  3  Y    0.000000  -0.379571   0.000000   0.000000  -0.048592
   43  O  3  Z   -0.148041   0.000000   0.322338   0.012594   0.000000
   44  O  3 XX   -0.025677   0.000000   0.002755  -0.020248   0.000000
   45  O  3 YY    0.005462   0.000000   0.008483   0.029364   0.000000
   46  O  3 ZZ    0.020216   0.000000  -0.011237  -0.009115   0.000000
   47  O  3 XY    0.000000   0.013689   0.000000   0.000000  -0.028995
   48  O  3 XZ   -0.035224   0.000000  -0.009560  -0.006509   0.000000
   49  O  3 YZ    0.000000  -0.002927   0.000000   0.000000  -0.028552

                     21         22         23         24         25
                    0.3945     0.4511     0.4940     0.6502     0.6537
                     A1         B1         A1         B1         A1  
    1  S  1  S   -0.072494   0.000000  -0.008562   0.000000  -0.041796
    2  S  1  S   -0.186039   0.000000   0.129243   0.000000  -0.216888
    3  S  1  S   -1.017891   0.000000   0.070126   0.000000  -0.731248
    4  S  1  S    1.728911   0.000000   2.210102   0.000000  -0.029958
    5  S  1  X    0.000000   0.162297   0.000000  -0.237847   0.000000
    6  S  1  Y    0.000000   0.000000   0.000000   0.000000   0.000000
    7  S  1  Z   -0.236080   0.000000  -0.010782   0.000000   0.035503
    8  S  1  X    0.000000  -0.381998   0.000000   1.322148   0.000000
    9  S  1  Y    0.000000   0.000000   0.000000   0.000000   0.000000
   10  S  1  Z    0.982540   0.000000   0.320676   0.000000  -0.295056
   11  S  1  X    0.000000   1.127562   0.000000  -0.458245   0.000000
   12  S  1  Y    0.000000   0.000000   0.000000   0.000000   0.000000
   13  S  1  Z   -0.554514   0.000000   0.701286   0.000000  -0.507887
   14  S  1 XX   -0.133090   0.000000   0.449909   0.000000   0.646586
   15  S  1 YY    0.204858   0.000000  -0.690740   0.000000   0.022708
   16  S  1 ZZ   -0.071768   0.000000   0.240831   0.000000  -0.669294
   17  S  1 XY    0.000000   0.000000   0.000000   0.000000   0.000000
   18  S  1 XZ    0.000000   0.679055   0.000000  -0.053049   0.000000
   19  S  1 YZ    0.000000   0.000000   0.000000   0.000000   0.000000
   20  O  2  S    0.017037  -0.017059   0.037352  -0.061671  -0.015445
   21  O  2  S   -0.039235  -0.031363  -0.022714   0.066943   0.018541
   22  O  2  S   -0.324946   1.071417  -1.248005   0.918258   0.265984
   23  O  2  X    0.024898  -0.182111   0.186466  -0.114138  -0.169512
   24  O  2  Y    0.000000   0.000000   0.000000   0.000000   0.000000
   25  O  2  Z   -0.030052   0.183658  -0.251197   0.133247  -0.119735
   26  O  2  X   -0.207565   0.548246  -0.504865   1.086139   0.791705
   27  O  2  Y    0.000000   0.000000   0.000000   0.000000   0.000000
   28  O  2  Z    0.125885  -0.351546   0.711124  -0.897512   0.210199
   29  O  2 XX    0.009468  -0.009393  -0.000617   0.029565  -0.034397
   30  O  2 YY    0.022590  -0.024224  -0.006996  -0.005821   0.003107
   31  O  2 ZZ   -0.032057   0.033617   0.007613  -0.023743   0.031290
   32  O  2 XY    0.000000   0.000000   0.000000   0.000000   0.000000
   33  O  2 XZ    0.012200  -0.018661   0.050955  -0.019178   0.006772
   34  O  2 YZ    0.000000   0.000000   0.000000   0.000000   0.000000
   35  O  3  S    0.017037   0.017059   0.037352   0.061671  -0.015445
   36  O  3  S   -0.039235   0.031363  -0.022714  -0.066943   0.018541
   37  O  3  S   -0.324946  -1.071417  -1.248005  -0.918258   0.265984
   38  O  3  X   -0.024898  -0.182111  -0.186466  -0.114138   0.169512
   39  O  3  Y    0.000000   0.000000   0.000000   0.000000   0.000000
   40  O  3  Z   -0.030052  -0.183658  -0.251197  -0.133247  -0.119735
   41  O  3  X    0.207565   0.548246   0.504865   1.086139  -0.791705
   42  O  3  Y    0.000000   0.000000   0.000000   0.000000   0.000000
   43  O  3  Z    0.125885   0.351546   0.711124   0.897512   0.210199
   44  O  3 XX    0.009468   0.009393  -0.000617  -0.029565  -0.034397
   45  O  3 YY    0.022590   0.024224  -0.006996   0.005821   0.003107
   46  O  3 ZZ   -0.032057  -0.033617   0.007613   0.023743   0.031290
   47  O  3 XY    0.000000   0.000000   0.000000   0.000000   0.000000
   48  O  3 XZ   -0.012200  -0.018661  -0.050955  -0.019178  -0.006772
   49  O  3 YZ    0.000000   0.000000   0.000000   0.000000   0.000000

                     26         27         28         29         30
                    0.6963     0.7225     0.7288     0.7698     0.8058
                     A2         A1         B2         A2         B2  
    1  S  1  S    0.000000   0.086832   0.000000   0.000000   0.000000
    2  S  1  S    0.000000   0.526929   0.000000   0.000000   0.000000
    3  S  1  S    0.000000   1.608462   0.000000   0.000000   0.000000
    4  S  1  S    0.000000  -0.700667   0.000000   0.000000   0.000000
    5  S  1  X    0.000000   0.000000   0.000000   0.000000   0.000000
    6  S  1  Y    0.000000   0.000000   0.003907   0.000000  -0.053068
    7  S  1  Z    0.000000  -0.119901   0.000000   0.000000   0.000000
    8  S  1  X    0.000000   0.000000   0.000000   0.000000   0.000000
    9  S  1  Y    0.000000   0.000000   0.027560   0.000000   0.099441
   10  S  1  Z    0.000000   0.626248   0.000000   0.000000   0.000000
   11  S  1  X    0.000000   0.000000   0.000000   0.000000   0.000000
   12  S  1  Y    0.000000   0.000000   0.934850   0.000000  -0.595578
   13  S  1  Z    0.000000  -0.883106   0.000000   0.000000   0.000000
   14  S  1 XX    0.000000  -0.109476   0.000000   0.000000   0.000000
   15  S  1 YY    0.000000   0.486759   0.000000   0.000000   0.000000
   16  S  1 ZZ    0.000000  -0.377283   0.000000   0.000000   0.000000
   17  S  1 XY    1.062873   0.000000   0.000000  -0.200441   0.000000
   18  S  1 XZ    0.000000   0.000000   0.000000   0.000000   0.000000
   19  S  1 YZ    0.000000   0.000000   1.045999   0.000000   0.293575
   20  O  2  S    0.000000   0.029125   0.000000   0.000000   0.000000
   21  O  2  S    0.000000   0.044252   0.000000   0.000000   0.000000
   22  O  2  S    0.000000  -0.029719   0.000000   0.000000   0.000000
   23  O  2  X    0.000000  -0.099675   0.000000   0.000000   0.000000
   24  O  2  Y    0.085031   0.000000  -0.003075  -0.656308  -0.697308
   25  O  2  Z    0.000000  -0.209195   0.000000   0.000000   0.000000
   26  O  2  X    0.000000  -0.314054   0.000000   0.000000   0.000000
   27  O  2  Y    0.602131   0.000000  -0.773744   0.812222   0.718007
   28  O  2  Z    0.000000   0.907177   0.000000   0.000000   0.000000
   29  O  2 XX    0.000000  -0.004182   0.000000   0.000000   0.000000
   30  O  2 YY    0.000000   0.008493   0.000000   0.000000   0.000000
   31  O  2 ZZ    0.000000  -0.004311   0.000000   0.000000   0.000000
   32  O  2 XY   -0.001847   0.000000   0.046735  -0.041653   0.049962
   33  O  2 XZ    0.000000  -0.033375   0.000000   0.000000   0.000000
   34  O  2 YZ    0.048190   0.000000   0.002195  -0.012142   0.028259
   35  O  3  S    0.000000   0.029125   0.000000   0.000000   0.000000
   36  O  3  S    0.000000   0.044252   0.000000   0.000000   0.000000
   37  O  3  S    0.000000  -0.029719   0.000000   0.000000   0.000000
   38  O  3  X    0.000000   0.099675   0.000000   0.000000   0.000000
   39  O  3  Y   -0.085031   0.000000  -0.003075   0.656308  -0.697308
   40  O  3  Z    0.000000  -0.209195   0.000000   0.000000   0.000000
   41  O  3  X    0.000000   0.314054   0.000000   0.000000   0.000000
   42  O  3  Y   -0.602131   0.000000  -0.773744  -0.812222   0.718007
   43  O  3  Z    0.000000   0.907177   0.000000   0.000000   0.000000
   44  O  3 XX    0.000000  -0.004182   0.000000   0.000000   0.000000
   45  O  3 YY    0.000000   0.008493   0.000000   0.000000   0.000000
   46  O  3 ZZ    0.000000  -0.004311   0.000000   0.000000   0.000000
   47  O  3 XY   -0.001847   0.000000  -0.046735  -0.041653  -0.049962
   48  O  3 XZ    0.000000   0.033375   0.000000   0.000000   0.000000
   49  O  3 YZ   -0.048190   0.000000   0.002195   0.012142   0.028259

                     31         32         33         34         35
                    0.9265     0.9759     1.5867     1.6482     1.7200
                     B1         A1         A1         B1         A1  
    1  S  1  S    0.000000  -0.032916   0.016548   0.000000   0.046116
    2  S  1  S    0.000000  -0.137500  -0.014132   0.000000  -0.062563
    3  S  1  S    0.000000  -0.539848   0.169977   0.000000   0.481149
    4  S  1  S    0.000000   0.373859   2.692311   0.000000   0.345514
    5  S  1  X    0.014997   0.000000   0.000000  -0.108654   0.000000
    6  S  1  Y    0.000000   0.000000   0.000000   0.000000   0.000000
    7  S  1  Z    0.000000   0.038949  -0.140683   0.000000  -0.187403
    8  S  1  X   -0.013047   0.000000   0.000000   0.757361   0.000000
    9  S  1  Y    0.000000   0.000000   0.000000   0.000000   0.000000
   10  S  1  Z    0.000000  -0.227273   0.834068   0.000000   0.742864
   11  S  1  X    1.215227   0.000000   0.000000   0.699093   0.000000
   12  S  1  Y    0.000000   0.000000   0.000000   0.000000   0.000000
   13  S  1  Z    0.000000   0.282897   1.071462   0.000000   0.046442
   14  S  1 XX    0.000000  -0.725834   0.236111   0.000000   0.409963
   15  S  1 YY    0.000000  -0.001058  -0.510608   0.000000  -0.539319
   16  S  1 ZZ    0.000000   0.726892   0.274497   0.000000   0.129356
   17  S  1 XY    0.000000   0.000000   0.000000   0.000000   0.000000
   18  S  1 XZ    0.179252   0.000000   0.000000   0.339982   0.000000
   19  S  1 YZ    0.000000   0.000000   0.000000   0.000000   0.000000
   20  O  2  S    0.011517  -0.013865   0.001802  -0.008408   0.031788
   21  O  2  S    0.027028   0.164329   0.882824  -1.058628  -0.578480
   22  O  2  S    0.059999  -0.195133  -2.545189   2.398174  -0.211970
   23  O  2  X    0.441110  -0.400348  -0.261077   0.209314  -0.537065
   24  O  2  Y    0.000000   0.000000   0.000000   0.000000   0.000000
   25  O  2  Z    0.395952  -0.492595   0.297820  -0.209531   0.275118
   26  O  2  X   -1.188379   0.279887  -0.243676   0.547368   0.166645
   27  O  2  Y    0.000000   0.000000   0.000000   0.000000   0.000000
   28  O  2  Z   -0.948567  -0.014850   0.239021  -0.358667   0.027137
   29  O  2 XX    0.018724  -0.017856  -0.079874  -0.148236   0.370064
   30  O  2 YY   -0.008495   0.057418   0.032186   0.242887  -0.271690
   31  O  2 ZZ   -0.010228  -0.039562   0.047688  -0.094651  -0.098374
   32  O  2 XY    0.000000   0.000000   0.000000   0.000000   0.000000
   33  O  2 XZ    0.021460  -0.013286  -0.261082   0.075704   0.051701
   34  O  2 YZ    0.000000   0.000000   0.000000   0.000000   0.000000
   35  O  3  S   -0.011517  -0.013865   0.001802   0.008408   0.031788
   36  O  3  S   -0.027028   0.164329   0.882824   1.058628  -0.578480
   37  O  3  S   -0.059999  -0.195133  -2.545189  -2.398174  -0.211970
   38  O  3  X    0.441110   0.400348   0.261077   0.209314   0.537065
   39  O  3  Y    0.000000   0.000000   0.000000   0.000000   0.000000
   40  O  3  Z   -0.395952  -0.492595   0.297820   0.209531   0.275118
   41  O  3  X   -1.188379  -0.279887   0.243676   0.547368  -0.166645
   42  O  3  Y    0.000000   0.000000   0.000000   0.000000   0.000000
   43  O  3  Z    0.948567  -0.014850   0.239021   0.358667   0.027137
   44  O  3 XX   -0.018724  -0.017856  -0.079874   0.148236   0.370064
   45  O  3 YY    0.008495   0.057418   0.032186  -0.242887  -0.271690
   46  O  3 ZZ    0.010228  -0.039562   0.047688   0.094651  -0.098374
   47  O  3 XY    0.000000   0.000000   0.000000   0.000000   0.000000
   48  O  3 XZ    0.021460   0.013286   0.261082   0.075704  -0.051701
   49  O  3 YZ    0.000000   0.000000   0.000000   0.000000   0.000000

                     36         37         38         39         40
                    1.9126     1.9663     2.0481     2.1594     2.2834
                     B2         B1         A1         B1         A2  
    1  S  1  S    0.000000   0.000000   0.016491   0.000000   0.000000
    2  S  1  S    0.000000   0.000000  -0.107509   0.000000   0.000000
    3  S  1  S    0.000000   0.000000   0.069526   0.000000   0.000000
    4  S  1  S    0.000000   0.000000  -1.029302   0.000000   0.000000
    5  S  1  X    0.000000  -0.231273   0.000000  -0.055341   0.000000
    6  S  1  Y    0.002833   0.000000   0.000000   0.000000   0.000000
    7  S  1  Z    0.000000   0.000000  -0.079240   0.000000   0.000000
    8  S  1  X    0.000000   0.980638   0.000000   0.316204   0.000000
    9  S  1  Y   -0.002674   0.000000   0.000000   0.000000   0.000000
   10  S  1  Z    0.000000   0.000000   0.177776   0.000000   0.000000
   11  S  1  X    0.000000   0.104803   0.000000   0.045645   0.000000
   12  S  1  Y    0.056911   0.000000   0.000000   0.000000   0.000000
   13  S  1  Z    0.000000   0.000000  -0.473031   0.000000   0.000000
   14  S  1 XX    0.000000   0.000000   0.146258   0.000000   0.000000
   15  S  1 YY    0.000000   0.000000  -0.460218   0.000000   0.000000
   16  S  1 ZZ    0.000000   0.000000   0.313960   0.000000   0.000000
   17  S  1 XY    0.000000   0.000000   0.000000   0.000000  -0.233236
   18  S  1 XZ    0.000000   1.285679   0.000000  -0.165623   0.000000
   19  S  1 YZ   -0.256649   0.000000   0.000000   0.000000   0.000000
   20  O  2  S    0.000000   0.003762  -0.005967  -0.008692   0.000000
   21  O  2  S    0.000000   0.733069  -0.837710  -0.233240   0.000000
   22  O  2  S    0.000000   0.388135   1.125873   0.399174   0.000000
   23  O  2  X    0.000000   0.383939  -0.187024   0.019971   0.000000
   24  O  2  Y    0.093834   0.000000   0.000000   0.000000  -0.081258
   25  O  2  Z    0.000000  -0.576692   0.102025  -0.003373   0.000000
   26  O  2  X    0.000000   0.108244   0.222694   0.093990   0.000000
   27  O  2  Y   -0.072687   0.000000   0.000000   0.000000   0.072860
   28  O  2  Z    0.000000   0.117877  -0.197425  -0.087063   0.000000
   29  O  2 XX    0.000000   0.178927  -0.324018  -0.157314   0.000000
   30  O  2 YY    0.000000  -0.050171   0.488858  -0.447581   0.000000
   31  O  2 ZZ    0.000000  -0.128756  -0.164840   0.604894   0.000000
   32  O  2 XY    0.489693   0.000000   0.000000   0.000000   0.537872
   33  O  2 XZ    0.000000   0.195251  -0.333240   0.368092   0.000000
   34  O  2 YZ    0.496092   0.000000   0.000000   0.000000   0.509965
   35  O  3  S    0.000000  -0.003762  -0.005967   0.008692   0.000000
   36  O  3  S    0.000000  -0.733069  -0.837710   0.233240   0.000000
   37  O  3  S    0.000000  -0.388135   1.125873  -0.399174   0.000000
   38  O  3  X    0.000000   0.383939   0.187024   0.019971   0.000000
   39  O  3  Y    0.093834   0.000000   0.000000   0.000000   0.081258
   40  O  3  Z    0.000000   0.576692   0.102025   0.003373   0.000000
   41  O  3  X    0.000000   0.108244  -0.222694   0.093990   0.000000
   42  O  3  Y   -0.072687   0.000000   0.000000   0.000000  -0.072860
   43  O  3  Z    0.000000  -0.117877  -0.197425   0.087063   0.000000
   44  O  3 XX    0.000000  -0.178927  -0.324018   0.157314   0.000000
   45  O  3 YY    0.000000   0.050171   0.488858   0.447581   0.000000
   46  O  3 ZZ    0.000000   0.128756  -0.164840  -0.604894   0.000000
   47  O  3 XY   -0.489693   0.000000   0.000000   0.000000   0.537872
   48  O  3 XZ    0.000000   0.195251   0.333240   0.368092   0.000000
   49  O  3 YZ    0.496092   0.000000   0.000000   0.000000  -0.509965

                     41         42         43         44         45
                    2.4829     2.6328     2.6974     2.7065     3.0309
                     A2         B2         B1         A1         A1  
    1  S  1  S    0.000000   0.000000   0.000000  -0.030182   0.089021
    2  S  1  S    0.000000   0.000000   0.000000  -0.480318   0.863676
    3  S  1  S    0.000000   0.000000   0.000000  -0.999901   2.260300
    4  S  1  S    0.000000   0.000000   0.000000  -0.704242   1.328600
    5  S  1  X    0.000000   0.000000  -0.071685   0.000000   0.000000
    6  S  1  Y    0.000000  -0.121861   0.000000   0.000000   0.000000
    7  S  1  Z    0.000000   0.000000   0.000000  -0.094247  -0.140644
    8  S  1  X    0.000000   0.000000   1.763410   0.000000   0.000000
    9  S  1  Y    0.000000   0.817081   0.000000   0.000000   0.000000
   10  S  1  Z    0.000000   0.000000   0.000000  -0.109734   2.118301
   11  S  1  X    0.000000   0.000000   0.283392   0.000000   0.000000
   12  S  1  Y    0.000000   0.208401   0.000000   0.000000   0.000000
   13  S  1  Z    0.000000   0.000000   0.000000  -0.003408   0.300305
   14  S  1 XX    0.000000   0.000000   0.000000  -0.926709  -0.189211
   15  S  1 YY    0.000000   0.000000   0.000000   0.107499  -0.541803
   16  S  1 ZZ    0.000000   0.000000   0.000000   0.819210   0.731014
   17  S  1 XY    0.723208   0.000000   0.000000   0.000000   0.000000
   18  S  1 XZ    0.000000   0.000000   0.764735   0.000000   0.000000
   19  S  1 YZ    0.000000   0.790462   0.000000   0.000000   0.000000
   20  O  2  S    0.000000   0.000000  -0.038975  -0.021331   0.033346
   21  O  2  S    0.000000   0.000000  -0.553073  -0.484947   0.090543
   22  O  2  S    0.000000   0.000000   2.643348   1.122258  -1.921447
   23  O  2  X    0.000000   0.000000   0.278168  -0.101285  -0.477758
   24  O  2  Y    0.003059  -0.096243   0.000000   0.000000   0.000000
   25  O  2  Z    0.000000   0.000000  -0.312305  -0.148742   0.335390
   26  O  2  X    0.000000   0.000000   1.112979   0.186279  -0.779281
   27  O  2  Y    0.389486  -0.395570   0.000000   0.000000   0.000000
   28  O  2  Z    0.000000   0.000000  -0.709118  -0.657442   0.556846
   29  O  2 XX    0.000000   0.000000   0.456210  -0.447052  -0.558225
   30  O  2 YY    0.000000   0.000000  -0.599297  -0.421094   0.372176
   31  O  2 ZZ    0.000000   0.000000   0.143088   0.868146   0.186049
   32  O  2 XY    0.572581  -0.647166   0.000000   0.000000   0.000000
   33  O  2 XZ    0.000000   0.000000  -0.644638  -0.260293   0.797841
   34  O  2 YZ   -0.624969   0.615360   0.000000   0.000000   0.000000
   35  O  3  S    0.000000   0.000000   0.038975  -0.021331   0.033346
   36  O  3  S    0.000000   0.000000   0.553073  -0.484947   0.090543
   37  O  3  S    0.000000   0.000000  -2.643348   1.122258  -1.921447
   38  O  3  X    0.000000   0.000000   0.278168   0.101285   0.477758
   39  O  3  Y   -0.003059  -0.096243   0.000000   0.000000   0.000000
   40  O  3  Z    0.000000   0.000000   0.312305  -0.148742   0.335390
   41  O  3  X    0.000000   0.000000   1.112979  -0.186279   0.779281
   42  O  3  Y   -0.389486  -0.395570   0.000000   0.000000   0.000000
   43  O  3  Z    0.000000   0.000000   0.709118  -0.657442   0.556846
   44  O  3 XX    0.000000   0.000000  -0.456210  -0.447052  -0.558225
   45  O  3 YY    0.000000   0.000000   0.599297  -0.421094   0.372176
   46  O  3 ZZ    0.000000   0.000000  -0.143088   0.868146   0.186049
   47  O  3 XY    0.572581   0.647166   0.000000   0.000000   0.000000
   48  O  3 XZ    0.000000   0.000000  -0.644638   0.260293  -0.797841
   49  O  3 YZ    0.624969   0.615360   0.000000   0.000000   0.000000

                     46
                    3.1603
                     B1  
    1  S  1  S    0.000000
    2  S  1  S    0.000000
    3  S  1  S    0.000000
    4  S  1  S    0.000000
    5  S  1  X   -0.165868
    6  S  1  Y    0.000000
    7  S  1  Z    0.000000
    8  S  1  X    1.333271
    9  S  1  Y    0.000000
   10  S  1  Z    0.000000
   11  S  1  X    0.369269
   12  S  1  Y    0.000000
   13  S  1  Z    0.000000
   14  S  1 XX    0.000000
   15  S  1 YY    0.000000
   16  S  1 ZZ    0.000000
   17  S  1 XY    0.000000
   18  S  1 XZ    0.889347
   19  S  1 YZ    0.000000
   20  O  2  S    0.025418
   21  O  2  S    0.607799
   22  O  2  S    0.185727
   23  O  2  X    0.289259
   24  O  2  Y    0.000000
   25  O  2  Z   -0.296884
   26  O  2  X   -0.402859
   27  O  2  Y    0.000000
   28  O  2  Z   -0.520480
   29  O  2 XX   -0.727621
   30  O  2 YY    0.211109
   31  O  2 ZZ    0.516512
   32  O  2 XY    0.000000
   33  O  2 XZ   -0.474540
   34  O  2 YZ    0.000000
   35  O  3  S   -0.025418
   36  O  3  S   -0.607799
   37  O  3  S   -0.185727
   38  O  3  X    0.289259
   39  O  3  Y    0.000000
   40  O  3  Z    0.296884
   41  O  3  X   -0.402859
   42  O  3  Y    0.000000
   43  O  3  Z    0.520480
   44  O  3 XX    0.727621
   45  O  3 YY   -0.211109
   46  O  3 ZZ   -0.516512
   47  O  3 XY    0.000000
   48  O  3 XZ   -0.474540
   49  O  3 YZ    0.000000
 ...... END OF RHF CALCULATION ......
 STEP CPU TIME =     4.66 TOTAL CPU TIME =        4.9 (    0.1 MIN)
 TOTAL WALL CLOCK TIME=        4.9 SECONDS, CPU UTILIZATION IS 100.00%

     ---------------------------------------------------------------------
     PROPERTIES FOR THE PBE      DFT FUNCTIONAL (RHF  TYPE) DENSITY MATRIX
     ---------------------------------------------------------------------

          -----------------
          ENERGY COMPONENTS
          -----------------

         WAVEFUNCTION NORMALIZATION =       1.0000000000

                ONE ELECTRON ENERGY =   -1041.5952496770
                TWO ELECTRON ENERGY =     349.3634637293
           NUCLEAR REPULSION ENERGY =     144.9247312493
                                      ------------------
                       TOTAL ENERGY =    -547.3070546983

 ELECTRON-ELECTRON POTENTIAL ENERGY =     349.3634637293
  NUCLEUS-ELECTRON POTENTIAL ENERGY =   -1595.4616843531
   NUCLEUS-NUCLEUS POTENTIAL ENERGY =     144.9247312493
                                      ------------------
             TOTAL POTENTIAL ENERGY =   -1101.1734893745
               TOTAL KINETIC ENERGY =     553.8664346762
                 VIRIAL RATIO (V/T) =       1.9881571087

          ---------------------------------------
          MULLIKEN AND LOWDIN POPULATION ANALYSES
          ---------------------------------------

     ATOMIC MULLIKEN POPULATION IN EACH MOLECULAR ORBITAL

                      1          2          3          4          5

                  2.000000   2.000000   2.000000   2.000000   2.000000

    1             2.000077   0.001346  -0.001511   2.001735   1.996681
    2            -0.000039   0.999327   1.000755  -0.000868   0.001659
    3            -0.000039   0.999327   1.000755  -0.000868   0.001659

                      6          7          8          9         10

                  2.000000   2.000000   2.000000   2.000000   2.000000

    1             1.997181   1.999859   0.745729   0.657500   1.053981
    2             0.001410   0.000070   0.627136   0.671250   0.473010
    3             0.001410   0.000070   0.627136   0.671250   0.473010

                     11         12         13         14         15

                  2.000000   2.000000   2.000000   2.000000   2.000000

    1             0.861213   0.187965   0.174182   0.217734   1.253498
    2             0.569394   0.906018   0.912909   0.891133   0.373251
    3             0.569394   0.906018   0.912909   0.891133   0.373251

                     16

                  2.000000

    1             0.375933
    2             0.812033
    3             0.812033

               ----- POPULATIONS IN EACH AO -----
                             MULLIKEN      LOWDIN
              1  S  1  S      2.00025     1.99601
              2  S  1  S      2.01196     1.87763
              3  S  1  S      0.86060     0.50670
              4  S  1  S      0.94694     0.57106
              5  S  1  X      1.99659     1.95707
              6  S  1  Y      1.99513     1.95433
              7  S  1  Z      1.99673     1.96422
              8  S  1  X      0.69733     0.61316
              9  S  1  Y      0.63647     0.54965
             10  S  1  Z      0.88368     0.82281
             11  S  1  X      0.24481     0.33235
             12  S  1  Y      0.15144     0.22106
             13  S  1  Z      0.22360     0.36491
             14  S  1 XX      0.18771     0.33595
             15  S  1 YY      0.13004     0.20630
             16  S  1 ZZ      0.21773     0.35784
             17  S  1 XY      0.26406     0.28942
             18  S  1 XZ      0.07803     0.33307
             19  S  1 YZ      0.00000     0.07738
             20  O  2  S      1.99858     1.97670
             21  O  2  S      0.79594     0.60698
             22  O  2  S      0.83088     0.46546
             23  O  2  X      1.18068     1.13883
             24  O  2  Y      0.96224     0.90902
             25  O  2  Z      1.07513     1.04924
             26  O  2  X      0.43414     0.49299
             27  O  2  Y      0.48061     0.51736
             28  O  2  Z      0.43294     0.54204
             29  O  2 XX      0.01052     0.19028
             30  O  2 YY      0.00429     0.18152
             31  O  2 ZZ      0.00831     0.19590
             32  O  2 XY      0.01476     0.01539
             33  O  2 XZ      0.00944     0.04051
             34  O  2 YZ      0.00000     0.01230
             35  O  3  S      1.99858     1.97670
             36  O  3  S      0.79594     0.60698
             37  O  3  S      0.83088     0.46546
             38  O  3  X      1.18068     1.13883
             39  O  3  Y      0.96224     0.90902
             40  O  3  Z      1.07513     1.04924
             41  O  3  X      0.43414     0.49299
             42  O  3  Y      0.48061     0.51736
             43  O  3  Z      0.43294     0.54204
             44  O  3 XX      0.01052     0.19028
             45  O  3 YY      0.00429     0.18152
             46  O  3 ZZ      0.00831     0.19590
             47  O  3 XY      0.01476     0.01539
             48  O  3 XZ      0.00944     0.04051
             49  O  3 YZ      0.00000     0.01230

          ----- MULLIKEN ATOMIC OVERLAP POPULATIONS -----
          (OFF-DIAGONAL ELEMENTS NEED TO BE MULTIPLIED BY 2)

             1           2           3

    1   14.4118967
    2    0.5556029   8.2587108
    3    0.5556029  -0.5758650   8.2587108

          TOTAL MULLIKEN AND LOWDIN ATOMIC POPULATIONS
       ATOM         MULL.POP.    CHARGE          LOW.POP.     CHARGE
    1 S            15.523103    0.476897        15.330917    0.669083
    2 O             8.238449   -0.238449         8.334541   -0.334541
    3 O             8.238449   -0.238449         8.334541   -0.334541

          MULLIKEN SPHERICAL HARMONIC POPULATIONS
       ATOM           S       P       D      F      G      H      I    TOTAL
    1 S             5.82    8.83    0.88   0.00   0.00   0.00   0.00   15.52
    2 O             3.63    4.57    0.05   0.00   0.00   0.00   0.00    8.24
    3 O             3.63    4.57    0.05   0.00   0.00   0.00   0.00    8.24

          -------------------------------
          BOND ORDER AND VALENCE ANALYSIS     BOND ORDER THRESHOLD=0.050
          -------------------------------

                   BOND                       BOND                       BOND
  ATOM PAIR DIST  ORDER      ATOM PAIR DIST  ORDER      ATOM PAIR DIST  ORDER
    1   2  1.100  2.192        1   3  1.100  2.192        2   3  1.556 -0.062

                       TOTAL       BONDED        FREE
      ATOM            VALENCE     VALENCE     VALENCE
    1 S                 4.385       4.385       0.000
    2 O                 2.130       2.130       0.000
    3 O                 2.130       2.130       0.000

          ---------------------
          ELECTROSTATIC MOMENTS
          ---------------------

 POINT   1           X           Y           Z (BOHR)    CHARGE
                 0.000000    0.000000    0.000000        0.00 (A.U.)
         DX          DY          DZ         /D/  (DEBYE)
     0.000000    0.000000   -1.625821    1.625821
 ...... END OF PROPERTY EVALUATION ......
 STEP CPU TIME =     0.00 TOTAL CPU TIME =        4.9 (    0.1 MIN)
 TOTAL WALL CLOCK TIME=        5.0 SECONDS, CPU UTILIZATION IS  99.80%
               580000  WORDS OF DYNAMIC MEMORY USED
 EXECUTION OF GAMESS TERMINATED NORMALLY Thu Feb 26 00:11:12 2015
 DDI: 263624 bytes (0.3 MB / 0 MWords) used by master data server.

 ----------------------------------------
 CPU timing information for all processes
 ========================================
 0: 4.838 + 0.115 = 4.954
 ----------------------------------------
 ddikick.x: exited gracefully.
----- accounting info -----
Files used on the master node dftfe.crc.nd.edu were:
-rw-r--r-- 1 pmehta1 campus   37475 Feb 26 00:11 /tmp/gamess.dat
-rw-r--r-- 1 pmehta1 campus     141 Feb 26 00:11 /tmp/gamess.F05
-rw-r--r-- 1 pmehta1 campus 2340312 Feb 26 00:11 /tmp/gamess.F08
-rw-r--r-- 1 pmehta1 campus 1220440 Feb 26 00:11 /tmp/gamess.F10
Thu Feb 26 00:11:15 EST 2015
0.245u 0.173s 0:08.42 4.8%	0+0k 24+112io 1pf+0w
