----- GAMESS execution script 'rungms' -----
This job is running on host dftfe.crc.nd.edu
under operating system Linux at Thu Feb 26 00:13:28 EST 2015
Available scratch disk space (Kbyte units) at beginning of the job is
Filesystem     1K-blocks     Used Available Use% Mounted on
/dev/sda2      147771864 22810768 117454664  17% /
GAMESS temporary binary files will be written to /tmp
GAMESS supplementary output files will be written to /tmp
Copying input file gamess.inp to your run's scratch directory...

 Distributed Data Interface kickoff program.
 Initiating 1 compute processes on 1 nodes to run the following command:
 /opt/crc/gamess/2012R1/gamess/gamess.00.x gamess 

          ******************************************************
          *         GAMESS VERSION =  1 MAY 2012 (R1)          *
          *             FROM IOWA STATE UNIVERSITY             *
          * M.W.SCHMIDT, K.K.BALDRIDGE, J.A.BOATZ, S.T.ELBERT, *
          *   M.S.GORDON, J.H.JENSEN, S.KOSEKI, N.MATSUNAGA,   *
          *          K.A.NGUYEN, S.J.SU, T.L.WINDUS,           *
          *       TOGETHER WITH M.DUPUIS, J.A.MONTGOMERY       *
          *         J.COMPUT.CHEM.  14, 1347-1363(1993)        *
          **************** 64 BIT LINUX VERSION ****************

  SINCE 1993, STUDENTS AND POSTDOCS WORKING AT IOWA STATE UNIVERSITY
  AND ALSO IN THEIR VARIOUS JOBS AFTER LEAVING ISU HAVE MADE IMPORTANT
  CONTRIBUTIONS TO THE CODE:
     IVANA ADAMOVIC, CHRISTINE AIKENS, YURI ALEXEEV, POOJA ARORA,
     ANDREY ASADCHEV, ROB BELL, PRADIPTA BANDYOPADHYAY, JONATHAN BENTZ,
     BRETT BODE, GALINA CHABAN, WEI CHEN, CHEOL HO CHOI, PAUL DAY,
     ALBERT DEFUSCO, TIM DUDLEY, DMITRI FEDOROV, GRAHAM FLETCHER,
     MARK FREITAG, KURT GLAESEMANN, DAN KEMP, GRANT MERRILL,
     NORIYUKI MINEZAWA, JONATHAN MULLIN, TAKESHI NAGATA,
     SEAN NEDD, HEATHER NETZLOFF, BOSILJKA NJEGIC, RYAN OLSON, MIKE PAK,
     JIM SHOEMAKER, LYUDMILA SLIPCHENKO, SAROM SOK, JIE SONG,
     TETSUYA TAKETSUGU, SIMON WEBB, SOOHAENG YOO, FEDERICO ZAHARIEV

  ADDITIONAL CODE HAS BEEN PROVIDED BY COLLABORATORS IN OTHER GROUPS:
     IOWA STATE UNIVERSITY:
          JOE IVANIC, LAIMUTIS BYTAUTAS, KLAUS RUEDENBERG
     UNIVERSITY OF TOKYO: KIMIHIKO HIRAO, TAKAHITO NAKAJIMA,
          TAKAO TSUNEDA, MUNEAKI KAMIYA, SUSUMU YANAGISAWA,
          KIYOSHI YAGI, MAHITO CHIBA, SEIKEN TOKURA, NAOAKI KAWAKAMI
     UNIVERSITY OF AARHUS: FRANK JENSEN
     UNIVERSITY OF IOWA: VISVALDAS KAIRYS, HUI LI
     NATIONAL INST. OF STANDARDS AND TECHNOLOGY: WALT STEVENS, DAVID GARMER
     UNIVERSITY OF PISA: BENEDETTA MENNUCCI, JACOPO TOMASI
     UNIVERSITY OF MEMPHIS: HENRY KURTZ, PRAKASHAN KORAMBATH
     UNIVERSITY OF ALBERTA: TOBY ZENG, MARIUSZ KLOBUKOWSKI
     UNIVERSITY OF NEW ENGLAND: MARK SPACKMAN
     MIE UNIVERSITY: HIROAKI UMEDA
     MICHIGAN STATE UNIVERSITY:
          KAROL KOWALSKI, MARTA WLOCH, JEFFREY GOUR, JESSE LUTZ, PIOTR PIECUCH
     UNIVERSITY OF SILESIA: MONIKA MUSIAL, STANISLAW KUCHARSKI
     FACULTES UNIVERSITAIRES NOTRE-DAME DE LA PAIX:
          OLIVIER QUINET, BENOIT CHAMPAGNE
     UNIVERSITY OF CALIFORNIA - SANTA BARBARA: BERNARD KIRTMAN
     INSTITUTE FOR MOLECULAR SCIENCE:
          KAZUYA ISHIMURA, MICHIO KATOUDA, AND SHIGERU NAGASE
     UNIVERSITY OF NOTRE DAME: DAN CHIPMAN
     KYUSHU UNIVERSITY:
          HARUYUKI NAKANO,
          FENG LONG GU, JACEK KORCHOWIEC, MARCIN MAKOWSKI, AND YURIKO AOKI,
          HIROTOSHI MORI AND EISAKU MIYOSHI
     PENNSYLVANIA STATE UNIVERSITY:
          TZVETELIN IORDANOV, CHET SWALINA, JONATHAN SKONE,
          SHARON HAMMES-SCHIFFER
     WASEDA UNIVERSITY:
          MASATO KOBAYASHI, TOMOKO AKAMA, TSUGUKI TOUMA,
          TAKESHI YOSHIKAWA, YASUHIRO IKABATA, HIROMI NAKAI
     UNIVERSITY OF NEBRASKA:
          PEIFENG SU, DEJUN SI, NANDUN THELLAMUREGE, YALI WANG, HUI LI
     UNIVERSITY OF ZURICH:
          ROBERTO PEVERATI, KIM BALDRIDGE
     N. COPERNICUS UNIVERSITY AND JACKSON STATE UNIVERSITY:
          MARIA BARYSZ

 EXECUTION OF GAMESS BEGUN Thu Feb 26 00:13:29 2015

            ECHO OF THE FIRST FEW INPUT CARDS -
 INPUT CARD> $BASIS GBASIS=PC1 $END                                                         
 INPUT CARD> $CONTRL COORD=ZMT ISPHER=1 RUNTYP=ENERGY DFTTYP=PBE $END                       
 INPUT CARD>                                                                                
 INPUT CARD> $DATA                                                                          
 INPUT CARD>Title                                                                           
 INPUT CARD>Cnv 2                                                                           
 INPUT CARD>                                                                                
 INPUT CARD>S                                                                               
 INPUT CARD>O 1 1.20                                                                        
 INPUT CARD>O 1 1.20 2 160.0                                                                
 INPUT CARD> $END                                                                           
    1000000 WORDS OF MEMORY AVAILABLE

     BASIS OPTIONS
     -------------
     GBASIS=PC1          IGAUSS=       0      POLAR=NONE    
     NDFUNC=       0     NFFUNC=       0     DIFFSP=       F
     NPFUNC=       0      DIFFS=       F     BASNAM=        


     RUN TITLE
     ---------
 Title                                                                           

 THE POINT GROUP OF THE MOLECULE IS CNV     
 THE ORDER OF THE PRINCIPAL AXIS IS     2

 YOUR FULLY SUBSTITUTED Z-MATRIX IS
 S   
 O      1   1.2000000
 O      1   1.2000000  2  160.0000

 THE MOMENTS OF INERTIA ARE (AMU-ANGSTROM**2)
 IXX=     0.694   IYY=    44.676   IZZ=    45.371

 ATOM      ATOMIC                      COORDINATES (BOHR)
           CHARGE         X                   Y                   Z
 S          16.0     0.0000000000        0.0000000000       -0.1969431228
 O           8.0    -2.2332201645        0.0000000000        0.1968338461
 O           8.0     2.2332201645        0.0000000000        0.1968338461

          INTERNUCLEAR DISTANCES (ANGS.)
          ------------------------------

                1 S          2 O          3 O     

   1 S       0.0000000    1.2000000 *  1.2000000 *
   2 O       1.2000000 *  0.0000000    2.3635386 *
   3 O       1.2000000 *  2.3635386 *  0.0000000  

  * ... LESS THAN  3.000


     ATOMIC BASIS SET
     ----------------
 THE CONTRACTED PRIMITIVE FUNCTIONS HAVE BEEN UNNORMALIZED
 THE CONTRACTED BASIS FUNCTIONS ARE NOW NORMALIZED TO UNITY

  SHELL TYPE  PRIMITIVE        EXPONENT          CONTRACTION COEFFICIENT(S)

 S         

      1   S       1         55510.0000000    0.000587229760
      1   S       2          8326.7000000    0.004532413947
      1   S       3          1895.6000000    0.023265261648
      1   S       4           536.7700000    0.089696133027
      1   S       5           174.6700000    0.254098332277
      1   S       6            62.5780000    0.438665087637
      1   S       7            23.5730000    0.314547135094
      1   S       8             5.8908000    0.032727897102

      2   S       9          8326.7000000   -0.000019755715
      2   S      10          1895.6000000   -0.000043822381
      2   S      11           536.7700000   -0.001730264906
      2   S      12           174.6700000   -0.009381263460
      2   S      13            62.5780000   -0.064050766303
      2   S      14            23.5730000   -0.082478179196
      2   S      15             5.8908000    0.478342956889
      2   S      16             2.1852000    0.626896670208

      3   S      17          1895.6000000    0.000016227260
      3   S      18           536.7700000    0.000191135619
      3   S      19           174.6700000    0.001952069674
      3   S      20            62.5780000    0.010578701087
      3   S      21            23.5730000    0.022164934551
      3   S      22             5.8908000   -0.184968323118
      3   S      23             2.1852000   -0.480920750976
      3   S      24             0.4528200    1.243822243872

      4   S      25             0.1620200    1.000000000000

      5   P      26           395.4500000    0.004642761329
      5   P      27            92.8340000    0.036023396489
      5   P      28            29.2660000    0.149058869978
      5   P      29            10.5950000    0.360033266263
      5   P      30             4.0272000    0.455756476221
      5   P      31             1.5484000    0.206167664178

      6   P      32            92.8340000    0.000169901442
      6   P      33            29.2660000   -0.002541839934
      6   P      34            10.5950000   -0.007867614595
      6   P      35             4.0272000   -0.037231009184
      6   P      36             1.5484000    0.161417246830
      6   P      37             0.4613400    0.902230419976

      7   P      38             0.1313100    1.000000000000

      8   D      39             0.5500000    1.000000000000

 O         

     15   S      40          2306.7000000    0.005424388755
     15   S      41           347.1500000    0.040474749465
     15   S      42            78.8900000    0.180219634554
     15   S      43            21.8760000    0.462370311787
     15   S      44             6.6646000    0.454888396263

     16   S      45           347.1500000   -0.000655003786
     16   S      46            78.8900000   -0.005362052952
     16   S      47            21.8760000   -0.074902158894
     16   S      48             6.6646000   -0.181442579655
     16   S      49             1.0669000    1.102006874042

     17   S      50             0.3070000    1.000000000000

     18   P      51            17.0220000    0.068979967443
     18   P      52             3.6838000    0.351985516325
     18   P      53             0.9923400    0.724036547822

     19   P      54             0.2448700    1.000000000000

     20   D      55             1.0000000    1.000000000000

 TOTAL NUMBER OF BASIS SET SHELLS             =   20
 NUMBER OF CARTESIAN GAUSSIAN BASIS FUNCTIONS =   49
 NOTE: THIS RUN WILL RESTRICT THE MO VARIATION SPACE TO SPHERICAL HARMONICS.
 THE NUMBER OF ORBITALS KEPT IN THE VARIATIONAL SPACE WILL BE PRINTED LATER.
 NUMBER OF ELECTRONS                          =   32
 CHARGE OF MOLECULE                           =    0
 SPIN MULTIPLICITY                            =    1
 NUMBER OF OCCUPIED ORBITALS (ALPHA)          =   16
 NUMBER OF OCCUPIED ORBITALS (BETA )          =   16
 TOTAL NUMBER OF ATOMS                        =    3
 THE NUCLEAR REPULSION ENERGY IS      127.2202308054

     LEBEDEV GRID-BASED DFT OPTIONS
     ------------------------------
     DFTTYP=PBE     
     NRAD  =      96     NLEB  =     302
     NRAD0 =      24     NLEB0 =     110
     SWOFF =    5.00E-03 (PURE SCF -> DFT)
     SWITCH=    3.00E-04 (COARSE -> TIGHT GRID)
     THRESH=    0.00E+00 GTHRE=    1.00E+00

 GRIMME'S EMPIRICAL DISPERSION CORRECTION= F

     $CONTRL OPTIONS
     ---------------
 SCFTYP=RHF          RUNTYP=ENERGY       EXETYP=RUN     
 MPLEVL=       0     CITYP =NONE         CCTYP =NONE         VBTYP =NONE    
 DFTTYP=PBE          TDDFT =NONE    
 MULT  =       1     ICHARG=       0     NZVAR =       0     COORD =ZMT     
 PP    =NONE         RELWFN=NONE         LOCAL =NONE         NUMGRD=       F
 ISPHER=       1     NOSYM =       0     MAXIT =      30     UNITS =ANGS    
 PLTORB=       F     MOLPLT=       F     AIMPAC=       F     FRIEND=        
 NPRINT=       7     IREST =       0     GEOM  =INPUT   
 NORMF =       0     NORMP =       0     ITOL  =      20     ICUT  =       9
 INTTYP=BEST         GRDTYP=BEST         QMTTOL= 1.0E-06

     $SYSTEM OPTIONS
     ---------------
  REPLICATED MEMORY=     1000000 WORDS (ON EVERY NODE).
 DISTRIBUTED MEMDDI=           0 MILLION WORDS IN AGGREGATE,
 MEMDDI DISTRIBUTED OVER   1 PROCESSORS IS           0 WORDS/PROCESSOR.
 TOTAL MEMORY REQUESTED ON EACH PROCESSOR=     1000000 WORDS.
 TIMLIM=      525600.00 MINUTES, OR     365.0 DAYS.
 PARALL= F  BALTYP=  DLB     KDIAG=    0  COREFL= F
 MXSEQ2=     300 MXSEQ3=     150

          ----------------
          PROPERTIES INPUT
          ----------------

     MOMENTS            FIELD           POTENTIAL          DENSITY
 IEMOM =       1   IEFLD =       0   IEPOT =       0   IEDEN =       0
 WHERE =COMASS     WHERE =NUCLEI     WHERE =NUCLEI     WHERE =NUCLEI  
 OUTPUT=BOTH       OUTPUT=BOTH       OUTPUT=BOTH       OUTPUT=BOTH    
 IEMINT=       0   IEFINT=       0                     IEDINT=       0
                                                       MORB  =       0
          EXTRAPOLATION IN EFFECT
          DIIS IN EFFECT
 ORBITAL PRINTING OPTION: NPREO=     1    49     2     1

     -------------------------------
     INTEGRAL TRANSFORMATION OPTIONS
     -------------------------------
     NWORD  =            0
     CUTOFF = 1.0E-09     MPTRAN =       0
     DIRTRF =       F     AOINTS =DUP     

          ----------------------
          INTEGRAL INPUT OPTIONS
          ----------------------
 NOPK  =       1 NORDER=       0 SCHWRZ=       F

   --- ENCODED Z MATRIX ---
 COORD  TYPE   I   J   K   L   M   N
    1      1    3   1
    2      1    2   1
    3      2    2   1   3

 THE DETERMINANT OF THE G MATRIX IS 10**(    -4)

 THE DETERMINANT OF THE G MATRIX IS 10**(    -4)
 * * * WARNING * * *
 YOUR B MATRIX HAS A SMALL DETERMINANT.
 THIS SUGGESTS YOU MAY HAVE BADLY CHOSEN COORDINATES.

     ------------------------------------------
     THE POINT GROUP IS CNV, NAXIS= 2, ORDER= 4
     ------------------------------------------

 -- VARIATIONAL SPACE WILL BE RESTRICTED TO PURE SPHERICAL HARMONICS ONLY --
 AFTER EXCLUDING CONTAMINANT COMBINATIONS FROM THE CARTESIAN GAUSSIAN BASIS
 SET, THE NUMBER OF SPHERICAL HARMONICS KEPT IN THE VARIATION SPACE IS   46

     DIMENSIONS OF THE SYMMETRY SUBSPACES ARE
 A1  =   19     A2  =    5     B1  =   14     B2  =    8

 ..... DONE SETTING UP THE RUN .....
 STEP CPU TIME =     0.14 TOTAL CPU TIME =        0.1 (    0.0 MIN)
 TOTAL WALL CLOCK TIME=        0.2 SECONDS, CPU UTILIZATION IS  93.33%

          ********************
          1 ELECTRON INTEGRALS
          ********************
 ...... END OF ONE-ELECTRON INTEGRALS ......
 STEP CPU TIME =     0.01 TOTAL CPU TIME =        0.2 (    0.0 MIN)
 TOTAL WALL CLOCK TIME=        0.2 SECONDS, CPU UTILIZATION IS 100.00%

          -------------
          GUESS OPTIONS
          -------------
          GUESS =HUCKEL            NORB  =       0          NORDER=       0
          MIX   =       F          PRTMO =       F          PUNMO =       F
          TOLZ  = 1.0E-08          TOLE  = 1.0E-05
          SYMDEN=       F          PURIFY=       F

 INITIAL GUESS ORBITALS GENERATED BY HUCKEL   ROUTINE.
 HUCKEL GUESS REQUIRES     21583 WORDS.

 STATISTICS FOR GENERATION OF SYMMETRY ORBITAL -Q- MATRIX
 NUMBER OF CARTESIAN ATOMIC ORBITALS=         49
 NUMBER OF SPHERICAL CONTAMINANTS DROPPED=     3
 NUMBER OF LINEARLY DEPENDENT MOS DROPPED=     0
 TOTAL NUMBER OF MOS IN VARIATION SPACE=      46

 SYMMETRIES FOR INITIAL GUESS ORBITALS FOLLOW.   BOTH SET(S).
    16 ORBITALS ARE OCCUPIED (    7 CORE ORBITALS).
     8=?A1      9=?B1     10=A1      11=B2      12=A1      13=B1      14=A2  
    15=B1      16=A1      17=B2      18=A1      19=B1      20=A1      21=A1  
    22=A1      23=A1      24=A1      25=A1      26=A1  
 ...... END OF INITIAL ORBITAL SELECTION ......
 STEP CPU TIME =     0.00 TOTAL CPU TIME =        0.2 (    0.0 MIN)
 TOTAL WALL CLOCK TIME=        0.2 SECONDS, CPU UTILIZATION IS 100.00%

                    ----------------------
                    AO INTEGRAL TECHNOLOGY
                    ----------------------
     S,P,L SHELL ROTATED AXIS INTEGRALS, REPROGRAMMED BY
        KAZUYA ISHIMURA (IMS) AND JOSE SIERRA (SYNSTAR).
     S,P,D,L SHELL ROTATED AXIS INTEGRALS PROGRAMMED BY
        KAZUYA ISHIMURA (INSTITUTE FOR MOLECULAR SCIENCE).
     S,P,D,F,G SHELL TO TOTAL QUARTET ANGULAR MOMENTUM SUM 5,
        ERIC PROGRAM BY GRAHAM FLETCHER (ELORET AND NASA ADVANCED
        SUPERCOMPUTING DIVISION, AMES RESEARCH CENTER).
     S,P,D,F,G,L SHELL GENERAL RYS QUADRATURE PROGRAMMED BY
        MICHEL DUPUIS (PACIFIC NORTHWEST NATIONAL LABORATORY).

          --------------------
          2 ELECTRON INTEGRALS
          --------------------

 THE -PK- OPTION IS OFF, THE INTEGRALS ARE NOT IN SUPERMATRIX FORM.
 STORING   15000 INTEGRALS/RECORD ON DISK, USING 12 BYTES/INTEGRAL.
 TWO ELECTRON INTEGRAL EVALUATION REQUIRES   90606 WORDS OF MEMORY.
 II,JST,KST,LST =  1  1  1  1 NREC =         1 INTLOC =    1
 II,JST,KST,LST =  2  1  1  1 NREC =         1 INTLOC =    2
 II,JST,KST,LST =  3  1  1  1 NREC =         1 INTLOC =    7
 II,JST,KST,LST =  4  1  1  1 NREC =         1 INTLOC =   22
 II,JST,KST,LST =  5  1  1  1 NREC =         1 INTLOC =   56
 II,JST,KST,LST =  6  1  1  1 NREC =         1 INTLOC =  125
 II,JST,KST,LST =  7  1  1  1 NREC =         1 INTLOC =  329
 II,JST,KST,LST =  8  1  1  1 NREC =         1 INTLOC =  776
 II,JST,KST,LST =  9  1  1  1 NREC =         1 INTLOC = 2864
 II,JST,KST,LST = 10  1  1  1 NREC =         1 INTLOC = 2864
 II,JST,KST,LST = 11  1  1  1 NREC =         1 INTLOC = 2864
 II,JST,KST,LST = 12  1  1  1 NREC =         1 INTLOC = 2864
 II,JST,KST,LST = 13  1  1  1 NREC =         1 INTLOC = 2864
 II,JST,KST,LST = 14  1  1  1 NREC =         1 INTLOC = 2864
 II,JST,KST,LST = 15  1  1  1 NREC =         1 INTLOC = 2864
 II,JST,KST,LST = 16  1  1  1 NREC =         1 INTLOC = 5168
 II,JST,KST,LST = 17  1  1  1 NREC =         1 INTLOC = 8411
 II,JST,KST,LST = 18  1  1  1 NREC =         1 INTLOC =12868
 II,JST,KST,LST = 19  1  1  1 NREC =         3 INTLOC =  960
 II,JST,KST,LST = 20  1  1  1 NREC =         5 INTLOC = 2266
 TOTAL NUMBER OF NONZERO TWO-ELECTRON INTEGRALS =              179751
         12 INTEGRAL RECORDS WERE STORED ON DISK FILE  8.
  ...... END OF TWO-ELECTRON INTEGRALS .....
 STEP CPU TIME =     0.17 TOTAL CPU TIME =        0.3 (    0.0 MIN)
 TOTAL WALL CLOCK TIME=        0.3 SECONDS, CPU UTILIZATION IS 100.00%

          --------------------------
               R-PBE SCF CALCULATION
          --------------------------

     NUCLEAR ENERGY =       127.2202308054
     MAXIT =   30     NPUNCH=    2
     EXTRAP=T  DAMP=F  SHIFT=F  RSTRCT=F  DIIS=T  DEM=F  SOSCF=F
         DENSITY MATRIX CONVERGENCE THRESHOLD=  1.00E-05
     COARSE -> FINE DFT GRID SWITCH THRESHOLD=  3.00E-04 (SWITCH IN $DFT)
                   HF -> DFT SWITCH THRESHOLD=  5.00E-03 (SWOFF IN $DFT)
     MEMORY REQUIRED FOR RHF ITERS=    183108 WORDS.

 DFT CODE IS SWITCHING FROM THE FINE GRID NRAD= 96,  NLEB=  302
                      TO THE COARSE GRID NRAD0= 24, NLEB0=  110

     EXCHANGE FUNCTIONAL   =PBE       
     CORRELATION FUNCTIONAL=PBE       
     DFT THRESHOLD         =.460E-07
     GRID CHANGE THRESHOLD =.300E-03
 FOR AN EULER-MACLAURIN QUADRATURE USING  96 RADIAL POINTS:
 SMALLEST GAUSSIAN PRIMITIVE EXPONENT=        0.1313100000 OF TYPE -P-
 ON ATOM NUMBER   1 HAS RADIAL NORMALIZATION=  1.000000
  LARGEST GAUSSIAN PRIMITIVE EXPONENT=    55510.0000000000 OF TYPE -S-
 ON ATOM NUMBER   1 HAS RADIAL NORMALIZATION=  0.999999
 DFT IS SWITCHED OFF, PERFORMING PURE SCF UNTIL SWOFF THRESHOLD IS REACHED.

 ITER EX DEM     TOTAL ENERGY        E CHANGE  DENSITY CHANGE    DIIS ERROR
   1  0  0     -545.4362115237  -545.4362115237   0.517371185   1.385524362
          * * *   INITIATING DIIS PROCEDURE   * * *
   2  1  0     -546.5647868123    -1.1285752886   1.001927815   0.187188474
   3  2  0     -546.7059789941    -0.1411921818   0.299606123   0.106643503
   4  3  0     -546.7502755139    -0.0442965198   0.352168646   0.041321719
   5  4  0     -546.7679287177    -0.0176532038   0.267712476   0.020724529
   6  5  0     -546.7740716749    -0.0061429572   0.075937120   0.006527223
   7  6  0     -546.7746778831    -0.0006062082   0.017533873   0.001464431
   8  7  0     -546.7746904974    -0.0000126144   0.000745869   0.000387176
 CONVERGED TO SWOFF, SO DFT CALCULATION IS NOW SWITCHED ON.
          * * *   INITIATING DIIS PROCEDURE   * * *
   9  8  0     -547.8341545832    -1.0594640858   0.246692253   0.099913510
  10  9  0     -547.8492194383    -0.0150648551   0.130899123   0.045155777
  11 10  0     -547.8484012704     0.0008181679   0.055692410   0.047974583
  12 11  0     -547.8556869509    -0.0072856805   0.013609519   0.008956157
  13 12  0     -547.8558450801    -0.0001581292   0.006807863   0.000692294
  14 13  0     -547.8558466446    -0.0000015645   0.002641366   0.000219241
  15 14  0     -547.8558468799    -0.0000002353   0.000186479   0.000022963
 DFT CODE IS SWITCHING BACK TO THE FINE GRID
          * * *   INITIATING DIIS PROCEDURE   * * *
  16 15  0     -547.8596118864    -0.0037650065   0.011719430   0.008257654
  17 16  0     -547.8596961071    -0.0000842207   0.007555619   0.005087458
  18 17  0     -547.8597199013    -0.0000237942   0.002182203   0.003722997
  19 18  0     -547.8597473169    -0.0000274156   0.002461455   0.000332446
  20 19  0     -547.8597478229    -0.0000005060   0.000411217   0.000110442
  21 20  0     -547.8597478583    -0.0000000354   0.000007148   0.000005247
  22 21  0     -547.8597478584    -0.0000000001   0.000007687   0.000001043
  23 22  0     -547.8597478584     0.0000000000   0.000002565   0.000000192

          -----------------
          DENSITY CONVERGED
          -----------------
     TIME TO FORM FOCK OPERATORS=       4.4 SECONDS (       0.2 SEC/ITER)
     TIME TO SOLVE SCF EQUATIONS=       0.0 SECONDS (       0.0 SEC/ITER)

 FINAL R-PBE ENERGY IS     -547.8597478584 AFTER  23 ITERATIONS
 DFT EXCHANGE + CORRELATION ENERGY =       -43.0223693191
 TOTAL ELECTRON NUMBER             =        32.0000099535

          ------------
          EIGENVECTORS
          ------------

                      1          2          3          4          5
                  -88.1687   -18.7801   -18.7801    -7.8113    -5.8369
                     A1         A1         B1         A1         B1  
    1  S  1  S    1.002996  -0.000082   0.000000  -0.273799   0.000000
    2  S  1  S   -0.010140   0.000758   0.000000   1.039286   0.000000
    3  S  1  S    0.002231  -0.000497   0.000000   0.043425   0.000000
    4  S  1  S   -0.000055   0.008499   0.000000  -0.005922   0.000000
    5  S  1  X    0.000000   0.000000  -0.000254   0.000000   0.994411
    6  S  1  Y    0.000000   0.000000   0.000000   0.000000   0.000000
    7  S  1  Z    0.000054   0.000012   0.000000   0.013265   0.000000
    8  S  1  X    0.000000   0.000000   0.000523   0.000000   0.012115
    9  S  1  Y    0.000000   0.000000   0.000000   0.000000   0.000000
   10  S  1  Z    0.000108   0.000137   0.000000   0.001919   0.000000
   11  S  1  X    0.000000   0.000000  -0.008845   0.000000  -0.000640
   12  S  1  Y    0.000000   0.000000   0.000000   0.000000   0.000000
   13  S  1  Z    0.000034   0.001932   0.000000  -0.000180   0.000000
   14  S  1 XX    0.000514  -0.003224   0.000000   0.004318   0.000000
   15  S  1 YY   -0.000262   0.001537   0.000000  -0.002154   0.000000
   16  S  1 ZZ   -0.000252   0.001687   0.000000  -0.002164   0.000000
   17  S  1 XY    0.000000   0.000000   0.000000   0.000000   0.000000
   18  S  1 XZ    0.000000   0.000000   0.001094   0.000000   0.002016
   19  S  1 YZ    0.000000   0.000000   0.000000   0.000000   0.000000
   20  O  2  S    0.000009   0.703203   0.703211  -0.001146   0.002463
   21  O  2  S   -0.000054   0.027347   0.027264   0.000083  -0.003000
   22  O  2  S   -0.000653  -0.012342  -0.015492  -0.003870   0.000140
   23  O  2  X   -0.000236   0.002330   0.001455   0.000345  -0.004611
   24  O  2  Y    0.000000   0.000000   0.000000   0.000000   0.000000
   25  O  2  Z    0.000057  -0.000234  -0.000077   0.000038   0.001060
   26  O  2  X   -0.000434  -0.003406  -0.001847  -0.003221   0.000585
   27  O  2  Y    0.000000   0.000000   0.000000   0.000000   0.000000
   28  O  2  Z    0.000101  -0.000521   0.001207   0.000788   0.000330
   29  O  2 XX   -0.000123   0.000152   0.000358   0.001154  -0.002152
   30  O  2 YY    0.000071  -0.000146  -0.000097  -0.000561   0.001214
   31  O  2 ZZ    0.000051  -0.000006  -0.000261  -0.000593   0.000938
   32  O  2 XY    0.000000   0.000000   0.000000   0.000000   0.000000
   33  O  2 XZ    0.000075  -0.000451   0.000297  -0.000135   0.001113
   34  O  2 YZ    0.000000   0.000000   0.000000   0.000000   0.000000
   35  O  3  S    0.000009   0.703203  -0.703211  -0.001146  -0.002463
   36  O  3  S   -0.000054   0.027347  -0.027264   0.000083   0.003000
   37  O  3  S   -0.000653  -0.012342   0.015492  -0.003870  -0.000140
   38  O  3  X    0.000236  -0.002330   0.001455  -0.000345  -0.004611
   39  O  3  Y    0.000000   0.000000   0.000000   0.000000   0.000000
   40  O  3  Z    0.000057  -0.000234   0.000077   0.000038  -0.001060
   41  O  3  X    0.000434   0.003406  -0.001847   0.003221   0.000585
   42  O  3  Y    0.000000   0.000000   0.000000   0.000000   0.000000
   43  O  3  Z    0.000101  -0.000521  -0.001207   0.000788  -0.000330
   44  O  3 XX   -0.000123   0.000152  -0.000358   0.001154   0.002152
   45  O  3 YY    0.000071  -0.000146   0.000097  -0.000561  -0.001214
   46  O  3 ZZ    0.000051  -0.000006   0.000261  -0.000593  -0.000938
   47  O  3 XY    0.000000   0.000000   0.000000   0.000000   0.000000
   48  O  3 XZ   -0.000075   0.000451   0.000297   0.000135   0.001113
   49  O  3 YZ    0.000000   0.000000   0.000000   0.000000   0.000000

                      6          7          8          9         10
                   -5.8251    -5.8221    -1.1781    -1.0896    -0.5237
                     B2         A1         A1         B1         A1  
    1  S  1  S    0.000000   0.003923   0.061353   0.000000  -0.048700
    2  S  1  S    0.000000  -0.014558  -0.193204   0.000000   0.130547
    3  S  1  S    0.000000   0.001000   0.320051   0.000000  -0.311858
    4  S  1  S    0.000000  -0.000941   0.102498   0.000000  -0.144925
    5  S  1  X    0.000000   0.000000   0.000000  -0.210726   0.000000
    6  S  1  Y    0.996624   0.000000   0.000000   0.000000   0.000000
    7  S  1  Z    0.000000   0.996523  -0.040312   0.000000   0.027169
    8  S  1  X    0.000000   0.000000   0.000000   0.342928   0.000000
    9  S  1  Y    0.009535   0.000000   0.000000   0.000000   0.000000
   10  S  1  Z    0.000000   0.009423   0.067895   0.000000  -0.062346
   11  S  1  X    0.000000   0.000000   0.000000  -0.006633   0.000000
   12  S  1  Y   -0.000552   0.000000   0.000000   0.000000   0.000000
   13  S  1  Z    0.000000  -0.000546  -0.005549   0.000000   0.003924
   14  S  1 XX    0.000000  -0.000662   0.098123   0.000000   0.027064
   15  S  1 YY    0.000000  -0.000555  -0.051074   0.000000  -0.012265
   16  S  1 ZZ    0.000000   0.001217  -0.047049   0.000000  -0.014799
   17  S  1 XY    0.000000   0.000000   0.000000   0.000000   0.000000
   18  S  1 XZ    0.000000   0.000000   0.000000   0.049381   0.000000
   19  S  1 YZ    0.001015   0.000000   0.000000   0.000000   0.000000
   20  O  2  S    0.000000  -0.000396  -0.128955   0.145581  -0.100176
   21  O  2  S    0.000000   0.000609   0.237040  -0.281681   0.204658
   22  O  2  S    0.000000   0.000375   0.220650  -0.270821   0.356163
   23  O  2  X    0.000000   0.000982   0.145823  -0.149100  -0.310295
   24  O  2  Y    0.000652   0.000000   0.000000   0.000000   0.000000
   25  O  2  Z    0.000000   0.000471  -0.014127   0.021366   0.019305
   26  O  2  X    0.000000  -0.000008   0.035939  -0.017203  -0.167319
   27  O  2  Y    0.000038   0.000000   0.000000   0.000000   0.000000
   28  O  2  Z    0.000000   0.000009   0.004533   0.005623   0.007895
   29  O  2 XX    0.000000   0.000489   0.020940  -0.017278  -0.019023
   30  O  2 YY    0.000000  -0.000088  -0.009548   0.009339   0.009933
   31  O  2 ZZ    0.000000  -0.000401  -0.011393   0.007939   0.009090
   32  O  2 XY    0.000718   0.000000   0.000000   0.000000   0.000000
   33  O  2 XZ    0.000000   0.000577  -0.000185   0.008052   0.002629
   34  O  2 YZ   -0.000194   0.000000   0.000000   0.000000   0.000000
   35  O  3  S    0.000000  -0.000396  -0.128955  -0.145581  -0.100176
   36  O  3  S    0.000000   0.000609   0.237040   0.281681   0.204658
   37  O  3  S    0.000000   0.000375   0.220650   0.270821   0.356163
   38  O  3  X    0.000000  -0.000982  -0.145823  -0.149100   0.310295
   39  O  3  Y    0.000652   0.000000   0.000000   0.000000   0.000000
   40  O  3  Z    0.000000   0.000471  -0.014127  -0.021366   0.019305
   41  O  3  X    0.000000   0.000008  -0.035939  -0.017203   0.167319
   42  O  3  Y    0.000038   0.000000   0.000000   0.000000   0.000000
   43  O  3  Z    0.000000   0.000009   0.004533  -0.005623   0.007895
   44  O  3 XX    0.000000   0.000489   0.020940   0.017278  -0.019023
   45  O  3 YY    0.000000  -0.000088  -0.009548  -0.009339   0.009933
   46  O  3 ZZ    0.000000  -0.000401  -0.011393  -0.007939   0.009090
   47  O  3 XY   -0.000718   0.000000   0.000000   0.000000   0.000000
   48  O  3 XZ    0.000000  -0.000577   0.000185   0.008052  -0.002629
   49  O  3 YZ   -0.000194   0.000000   0.000000   0.000000   0.000000

                     11         12         13         14         15
                   -0.5191    -0.5129    -0.4555    -0.4057    -0.3988
                     B2         A1         B1         A2         B1  
    1  S  1  S    0.000000  -0.011929   0.000000   0.000000   0.000000
    2  S  1  S    0.000000   0.031440   0.000000   0.000000   0.000000
    3  S  1  S    0.000000  -0.077758   0.000000   0.000000   0.000000
    4  S  1  S    0.000000  -0.073976   0.000000   0.000000   0.000000
    5  S  1  X    0.000000   0.000000   0.160412   0.000000  -0.003464
    6  S  1  Y   -0.204054   0.000000   0.000000   0.000000   0.000000
    7  S  1  Z    0.000000  -0.196284   0.000000   0.000000   0.000000
    8  S  1  X    0.000000   0.000000  -0.332120   0.000000   0.003147
    9  S  1  Y    0.448216   0.000000   0.000000   0.000000   0.000000
   10  S  1  Z    0.000000   0.428750   0.000000   0.000000   0.000000
   11  S  1  X    0.000000   0.000000   0.067939   0.000000   0.019183
   12  S  1  Y    0.145334   0.000000   0.000000   0.000000   0.000000
   13  S  1  Z    0.000000   0.141452   0.000000   0.000000   0.000000
   14  S  1 XX    0.000000  -0.059389   0.000000   0.000000   0.000000
   15  S  1 YY    0.000000  -0.003756   0.000000   0.000000   0.000000
   16  S  1 ZZ    0.000000   0.063145   0.000000   0.000000   0.000000
   17  S  1 XY    0.000000   0.000000   0.000000  -0.193340   0.000000
   18  S  1 XZ    0.000000   0.000000  -0.013227   0.000000  -0.189397
   19  S  1 YZ    0.038747   0.000000   0.000000   0.000000   0.000000
   20  O  2  S    0.000000  -0.003069   0.065344   0.000000   0.004069
   21  O  2  S    0.000000   0.010797  -0.137425   0.000000  -0.017618
   22  O  2  S    0.000000   0.030867  -0.257873   0.000000  -0.021748
   23  O  2  X    0.000000   0.039138   0.399328   0.000000   0.127274
   24  O  2  Y    0.343596   0.000000   0.000000   0.454926   0.000000
   25  O  2  Z    0.000000   0.342545  -0.117608   0.000000   0.438759
   26  O  2  X    0.000000   0.029793   0.188626   0.000000   0.075554
   27  O  2  Y    0.181746   0.000000   0.000000   0.279300   0.000000
   28  O  2  Z    0.000000   0.179103  -0.069882   0.000000   0.270866
   29  O  2 XX    0.000000   0.008484   0.021675   0.000000   0.006795
   30  O  2 YY    0.000000  -0.001276  -0.012005   0.000000  -0.002620
   31  O  2 ZZ    0.000000  -0.007208  -0.009670   0.000000  -0.004175
   32  O  2 XY    0.032197   0.000000   0.000000   0.020029   0.000000
   33  O  2 XZ    0.000000   0.028810  -0.010692   0.000000   0.020348
   34  O  2 YZ   -0.003915   0.000000   0.000000  -0.000669   0.000000
   35  O  3  S    0.000000  -0.003069  -0.065344   0.000000  -0.004069
   36  O  3  S    0.000000   0.010797   0.137425   0.000000   0.017618
   37  O  3  S    0.000000   0.030867   0.257873   0.000000   0.021748
   38  O  3  X    0.000000  -0.039138   0.399328   0.000000   0.127274
   39  O  3  Y    0.343596   0.000000   0.000000  -0.454926   0.000000
   40  O  3  Z    0.000000   0.342545   0.117608   0.000000  -0.438759
   41  O  3  X    0.000000  -0.029793   0.188626   0.000000   0.075554
   42  O  3  Y    0.181746   0.000000   0.000000  -0.279300   0.000000
   43  O  3  Z    0.000000   0.179103   0.069882   0.000000  -0.270866
   44  O  3 XX    0.000000   0.008484  -0.021675   0.000000  -0.006795
   45  O  3 YY    0.000000  -0.001276   0.012005   0.000000   0.002620
   46  O  3 ZZ    0.000000  -0.007208   0.009670   0.000000   0.004175
   47  O  3 XY   -0.032197   0.000000   0.000000   0.020029   0.000000
   48  O  3 XZ    0.000000  -0.028810  -0.010692   0.000000   0.020348
   49  O  3 YZ   -0.003915   0.000000   0.000000   0.000669   0.000000

                     16         17         18         19         20
                   -0.1729    -0.0403    -0.0035     0.2320     0.3465
                     A1         B2         A1         B1         B2  
    1  S  1  S    0.025870   0.000000   0.004506   0.000000   0.000000
    2  S  1  S   -0.154320   0.000000  -0.072542   0.000000   0.000000
    3  S  1  S    0.077689   0.000000  -0.038310   0.000000   0.000000
    4  S  1  S    1.212633   0.000000   0.794369   0.000000   0.000000
    5  S  1  X    0.000000   0.000000   0.000000  -0.020769   0.000000
    6  S  1  Y    0.000000  -0.203737   0.000000   0.000000   0.291545
    7  S  1  Z    0.095116   0.000000  -0.177577   0.000000   0.000000
    8  S  1  X    0.000000   0.000000   0.000000   0.135090   0.000000
    9  S  1  Y    0.000000   0.544366   0.000000   0.000000  -1.107578
   10  S  1  Z   -0.218837   0.000000   0.489419   0.000000   0.000000
   11  S  1  X    0.000000   0.000000   0.000000   2.176735   0.000000
   12  S  1  Y    0.000000   0.761125   0.000000   0.000000   1.203586
   13  S  1  Z   -0.127142   0.000000   0.824336   0.000000   0.000000
   14  S  1 XX   -0.264941   0.000000  -0.115737   0.000000   0.000000
   15  S  1 YY    0.138565   0.000000   0.090820   0.000000   0.000000
   16  S  1 ZZ    0.126376   0.000000   0.024916   0.000000   0.000000
   17  S  1 XY    0.000000   0.000000   0.000000   0.000000   0.000000
   18  S  1 XZ    0.000000   0.000000   0.000000  -0.034804   0.000000
   19  S  1 YZ    0.000000  -0.027655   0.000000   0.000000  -0.104342
   20  O  2  S    0.050515   0.000000   0.035090  -0.079734   0.000000
   21  O  2  S   -0.082835   0.000000  -0.062460   0.096500   0.000000
   22  O  2  S   -0.329280   0.000000  -0.342502   1.323725   0.000000
   23  O  2  X   -0.260263   0.000000  -0.180166  -0.048211   0.000000
   24  O  2  Y    0.000000  -0.398559   0.000000   0.000000  -0.013098
   25  O  2  Z    0.187385   0.000000  -0.342790  -0.071319   0.000000
   26  O  2  X   -0.222016   0.000000  -0.218413   0.213219   0.000000
   27  O  2  Y    0.000000  -0.427422   0.000000   0.000000  -0.035419
   28  O  2  Z    0.162099   0.000000  -0.378301  -0.156744   0.000000
   29  O  2 XX   -0.022808   0.000000  -0.012954   0.028731   0.000000
   30  O  2 YY    0.010908   0.000000   0.008321  -0.014066   0.000000
   31  O  2 ZZ    0.011900   0.000000   0.004633  -0.014665   0.000000
   32  O  2 XY    0.000000  -0.003904   0.000000   0.000000  -0.042163
   33  O  2 XZ    0.004171   0.000000   0.000180  -0.006802   0.000000
   34  O  2 YZ    0.000000  -0.001555   0.000000   0.000000   0.002894
   35  O  3  S    0.050515   0.000000   0.035090   0.079734   0.000000
   36  O  3  S   -0.082835   0.000000  -0.062460  -0.096500   0.000000
   37  O  3  S   -0.329280   0.000000  -0.342502  -1.323725   0.000000
   38  O  3  X    0.260263   0.000000   0.180166  -0.048211   0.000000
   39  O  3  Y    0.000000  -0.398559   0.000000   0.000000  -0.013098
   40  O  3  Z    0.187385   0.000000  -0.342790   0.071319   0.000000
   41  O  3  X    0.222016   0.000000   0.218413   0.213219   0.000000
   42  O  3  Y    0.000000  -0.427422   0.000000   0.000000  -0.035419
   43  O  3  Z    0.162099   0.000000  -0.378301   0.156744   0.000000
   44  O  3 XX   -0.022808   0.000000  -0.012954  -0.028731   0.000000
   45  O  3 YY    0.010908   0.000000   0.008321   0.014066   0.000000
   46  O  3 ZZ    0.011900   0.000000   0.004633   0.014665   0.000000
   47  O  3 XY    0.000000   0.003904   0.000000   0.000000   0.042163
   48  O  3 XZ   -0.004171   0.000000  -0.000180  -0.006802   0.000000
   49  O  3 YZ    0.000000  -0.001555   0.000000   0.000000   0.002894

                     21         22         23         24         25
                    0.3500     0.4368     0.5201     0.5211     0.6222
                     A1         A1         B2         A1         A1  
    1  S  1  S   -0.007210  -0.075854   0.000000   0.008492   0.099662
    2  S  1  S   -0.008811  -0.139838   0.000000   0.011390   0.474677
    3  S  1  S   -0.084717  -0.983649   0.000000   0.106716   1.695668
    4  S  1  S    0.627341   2.864919   0.000000  -0.149714   0.238006
    5  S  1  X    0.000000   0.000000   0.000000   0.000000   0.000000
    6  S  1  Y    0.000000   0.000000   0.028808   0.000000   0.000000
    7  S  1  Z    0.282883  -0.069367   0.000000   0.028661  -0.034798
    8  S  1  X    0.000000   0.000000   0.000000   0.000000   0.000000
    9  S  1  Y    0.000000   0.000000  -0.113020   0.000000   0.000000
   10  S  1  Z   -1.054549   0.332380   0.000000  -0.115577   0.213097
   11  S  1  X    0.000000   0.000000   0.000000   0.000000   0.000000
   12  S  1  Y    0.000000   0.000000   0.178214   0.000000   0.000000
   13  S  1  Z    1.179803  -0.152969   0.000000   0.183630   0.051817
   14  S  1 XX    0.255002   0.580386   0.000000  -0.039289   0.200960
   15  S  1 YY   -0.052439  -0.375477   0.000000  -0.821726  -0.101671
   16  S  1 ZZ   -0.202563  -0.204908   0.000000   0.861015  -0.099289
   17  S  1 XY    0.000000   0.000000   0.000000   0.000000   0.000000
   18  S  1 XZ    0.000000   0.000000   0.000000   0.000000   0.000000
   19  S  1 YZ    0.000000   0.000000   0.975199   0.000000   0.000000
   20  O  2  S    0.006207   0.026556   0.000000   0.001079   0.054285
   21  O  2  S    0.015726  -0.002434   0.000000  -0.015525  -0.090952
   22  O  2  S   -0.376510  -1.082597   0.000000   0.035732  -0.637294
   23  O  2  X    0.088163   0.271260   0.000000  -0.048998   0.178709
   24  O  2  Y    0.000000   0.000000  -0.106307   0.000000   0.000000
   25  O  2  Z   -0.013621  -0.035995   0.000000  -0.102256   0.017443
   26  O  2  X   -0.177449  -0.735077   0.000000   0.026822  -1.147555
   27  O  2  Y    0.000000   0.000000  -0.028104   0.000000   0.000000
   28  O  2  Z    0.025086   0.179265   0.000000  -0.037375   0.132632
   29  O  2 XX   -0.032111  -0.066677   0.000000   0.003288   0.010768
   30  O  2 YY    0.014282   0.033736   0.000000  -0.051670  -0.003555
   31  O  2 ZZ    0.017829   0.032941   0.000000   0.048382  -0.007213
   32  O  2 XY    0.000000   0.000000   0.006586   0.000000   0.000000
   33  O  2 XZ   -0.029105   0.039594   0.000000   0.006083   0.005594
   34  O  2 YZ    0.000000   0.000000   0.057857   0.000000   0.000000
   35  O  3  S    0.006207   0.026556   0.000000   0.001079   0.054285
   36  O  3  S    0.015726  -0.002434   0.000000  -0.015525  -0.090952
   37  O  3  S   -0.376510  -1.082597   0.000000   0.035732  -0.637294
   38  O  3  X   -0.088163  -0.271260   0.000000   0.048998  -0.178709
   39  O  3  Y    0.000000   0.000000  -0.106307   0.000000   0.000000
   40  O  3  Z   -0.013621  -0.035995   0.000000  -0.102256   0.017443
   41  O  3  X    0.177449   0.735077   0.000000  -0.026822   1.147555
   42  O  3  Y    0.000000   0.000000  -0.028104   0.000000   0.000000
   43  O  3  Z    0.025086   0.179265   0.000000  -0.037375   0.132632
   44  O  3 XX   -0.032111  -0.066677   0.000000   0.003288   0.010768
   45  O  3 YY    0.014282   0.033736   0.000000  -0.051670  -0.003555
   46  O  3 ZZ    0.017829   0.032941   0.000000   0.048382  -0.007213
   47  O  3 XY    0.000000   0.000000  -0.006586   0.000000   0.000000
   48  O  3 XZ    0.029105  -0.039594   0.000000  -0.006083  -0.005594
   49  O  3 YZ    0.000000   0.000000   0.057857   0.000000   0.000000

                     26         27         28         29         30
                    0.6231     0.6744     0.6749     0.7802     0.7920
                     B1         B1         A2         B1         A2  
    1  S  1  S    0.000000   0.000000   0.000000   0.000000   0.000000
    2  S  1  S    0.000000   0.000000   0.000000   0.000000   0.000000
    3  S  1  S    0.000000   0.000000   0.000000   0.000000   0.000000
    4  S  1  S    0.000000   0.000000   0.000000   0.000000   0.000000
    5  S  1  X   -0.084374   0.135134   0.000000  -0.180509   0.000000
    6  S  1  Y    0.000000   0.000000   0.000000   0.000000   0.000000
    7  S  1  Z    0.000000   0.000000   0.000000   0.000000   0.000000
    8  S  1  X    0.771018  -0.643119   0.000000   0.809724   0.000000
    9  S  1  Y    0.000000   0.000000   0.000000   0.000000   0.000000
   10  S  1  Z    0.000000   0.000000   0.000000   0.000000   0.000000
   11  S  1  X    0.007947   0.186774   0.000000  -0.516331   0.000000
   12  S  1  Y    0.000000   0.000000   0.000000   0.000000   0.000000
   13  S  1  Z    0.000000   0.000000   0.000000   0.000000   0.000000
   14  S  1 XX    0.000000   0.000000   0.000000   0.000000   0.000000
   15  S  1 YY    0.000000   0.000000   0.000000   0.000000   0.000000
   16  S  1 ZZ    0.000000   0.000000   0.000000   0.000000   0.000000
   17  S  1 XY    0.000000   0.000000   0.699645   0.000000   0.821952
   18  S  1 XZ    0.507014   0.666910   0.000000  -0.479536   0.000000
   19  S  1 YZ    0.000000   0.000000   0.000000   0.000000   0.000000
   20  O  2  S   -0.030481   0.024492   0.000000  -0.016669   0.000000
   21  O  2  S   -0.048916  -0.065804   0.000000   0.014143   0.000000
   22  O  2  S    0.632911  -0.088597   0.000000   0.062780   0.000000
   23  O  2  X   -0.316830  -0.002578   0.000000  -0.004698   0.000000
   24  O  2  Y    0.000000   0.000000  -0.368426   0.000000   0.566293
   25  O  2  Z    0.135385  -0.296461   0.000000  -0.585304   0.000000
   26  O  2  X    1.151433  -0.281134   0.000000   0.445034   0.000000
   27  O  2  Y    0.000000   0.000000   0.863917   0.000000  -0.170953
   28  O  2  Z    0.006014   0.819194   0.000000   0.332828   0.000000
   29  O  2 XX   -0.004008   0.008168   0.000000  -0.022079   0.000000
   30  O  2 YY   -0.002988  -0.015555   0.000000   0.027171   0.000000
   31  O  2 ZZ    0.006996   0.007387   0.000000  -0.005092   0.000000
   32  O  2 XY    0.000000   0.000000  -0.035415   0.000000  -0.064942
   33  O  2 XZ   -0.013319  -0.044994   0.000000   0.047943   0.000000
   34  O  2 YZ    0.000000   0.000000   0.011423   0.000000   0.026369
   35  O  3  S    0.030481  -0.024492   0.000000   0.016669   0.000000
   36  O  3  S    0.048916   0.065804   0.000000  -0.014143   0.000000
   37  O  3  S   -0.632911   0.088597   0.000000  -0.062780   0.000000
   38  O  3  X   -0.316830  -0.002578   0.000000  -0.004698   0.000000
   39  O  3  Y    0.000000   0.000000   0.368426   0.000000  -0.566293
   40  O  3  Z   -0.135385   0.296461   0.000000   0.585304   0.000000
   41  O  3  X    1.151433  -0.281134   0.000000   0.445034   0.000000
   42  O  3  Y    0.000000   0.000000  -0.863917   0.000000   0.170953
   43  O  3  Z   -0.006014  -0.819194   0.000000  -0.332828   0.000000
   44  O  3 XX    0.004008  -0.008168   0.000000   0.022079   0.000000
   45  O  3 YY    0.002988   0.015555   0.000000  -0.027171   0.000000
   46  O  3 ZZ   -0.006996  -0.007387   0.000000   0.005092   0.000000
   47  O  3 XY    0.000000   0.000000  -0.035415   0.000000  -0.064942
   48  O  3 XZ   -0.013319  -0.044994   0.000000   0.047943   0.000000
   49  O  3 YZ    0.000000   0.000000  -0.011423   0.000000  -0.026369

                     31         32         33         34         35
                    0.8802     0.8941     1.2338     1.5398     1.7996
                     A1         B2         B1         A1         B1  
    1  S  1  S    0.013819   0.000000   0.000000   0.025782   0.000000
    2  S  1  S    0.066626   0.000000   0.000000   0.017970   0.000000
    3  S  1  S    0.239395   0.000000   0.000000   0.327487   0.000000
    4  S  1  S   -0.055040   0.000000   0.000000   2.546336   0.000000
    5  S  1  X    0.000000   0.000000  -0.329391   0.000000  -0.028877
    6  S  1  Y    0.000000  -0.037398   0.000000   0.000000   0.000000
    7  S  1  Z   -0.043000   0.000000   0.000000  -0.039513   0.000000
    8  S  1  X    0.000000   0.000000   1.282392   0.000000   0.432682
    9  S  1  Y    0.000000   0.070749   0.000000   0.000000   0.000000
   10  S  1  Z    0.104356   0.000000   0.000000   0.244628   0.000000
   11  S  1  X    0.000000   0.000000   0.054491   0.000000   1.907367
   12  S  1  Y    0.000000  -1.063112   0.000000   0.000000   0.000000
   13  S  1  Z   -1.046489   0.000000   0.000000   0.408339   0.000000
   14  S  1 XX    0.134945   0.000000   0.000000   0.882819   0.000000
   15  S  1 YY    0.027184   0.000000   0.000000  -0.472434   0.000000
   16  S  1 ZZ   -0.162129   0.000000   0.000000  -0.410386   0.000000
   17  S  1 XY    0.000000   0.000000   0.000000   0.000000   0.000000
   18  S  1 XZ    0.000000   0.000000   0.516035   0.000000   0.114702
   19  S  1 YZ    0.000000  -0.110100   0.000000   0.000000   0.000000
   20  O  2  S   -0.003573   0.000000  -0.040431   0.010065  -0.012637
   21  O  2  S    0.054771   0.000000   0.342466   0.854492  -1.315701
   22  O  2  S   -0.077141   0.000000   0.377689  -2.389138   2.709156
   23  O  2  X   -0.163811   0.000000   0.657704  -0.415392   0.145761
   24  O  2  Y    0.000000  -0.622222   0.000000   0.000000   0.000000
   25  O  2  Z   -0.590461   0.000000   0.043245   0.189576   0.039430
   26  O  2  X    0.086216   0.000000  -0.002736  -0.668005   0.297268
   27  O  2  Y    0.000000   1.130534   0.000000   0.000000   0.000000
   28  O  2  Z    1.111054   0.000000   0.010358  -0.086886  -0.219376
   29  O  2 XX   -0.003444   0.000000  -0.127526   0.167378  -0.144462
   30  O  2 YY    0.000474   0.000000   0.035940  -0.099258   0.082521
   31  O  2 ZZ    0.002970   0.000000   0.091586  -0.068120   0.061941
   32  O  2 XY    0.000000  -0.048664   0.000000   0.000000   0.000000
   33  O  2 XZ   -0.041767   0.000000  -0.055445  -0.042858   0.128071
   34  O  2 YZ    0.000000   0.002046   0.000000   0.000000   0.000000
   35  O  3  S   -0.003573   0.000000   0.040431   0.010065   0.012637
   36  O  3  S    0.054771   0.000000  -0.342466   0.854492   1.315701
   37  O  3  S   -0.077141   0.000000  -0.377689  -2.389138  -2.709156
   38  O  3  X    0.163811   0.000000   0.657704   0.415392   0.145761
   39  O  3  Y    0.000000  -0.622222   0.000000   0.000000   0.000000
   40  O  3  Z   -0.590461   0.000000  -0.043245   0.189576  -0.039430
   41  O  3  X   -0.086216   0.000000  -0.002736   0.668005   0.297268
   42  O  3  Y    0.000000   1.130534   0.000000   0.000000   0.000000
   43  O  3  Z    1.111054   0.000000  -0.010358  -0.086886   0.219376
   44  O  3 XX   -0.003444   0.000000   0.127526   0.167378   0.144462
   45  O  3 YY    0.000474   0.000000  -0.035940  -0.099258  -0.082521
   46  O  3 ZZ    0.002970   0.000000  -0.091586  -0.068120  -0.061941
   47  O  3 XY    0.000000   0.048664   0.000000   0.000000   0.000000
   48  O  3 XZ    0.041767   0.000000  -0.055445   0.042858   0.128071
   49  O  3 YZ    0.000000   0.002046   0.000000   0.000000   0.000000

                     36         37         38         39         40
                    1.9217     1.9909     1.9912     2.0954     2.1152
                     A1         A2         B1         B2         A1  
    1  S  1  S   -0.018694   0.000000   0.000000   0.000000  -0.003019
    2  S  1  S    0.170204   0.000000   0.000000   0.000000   0.060671
    3  S  1  S   -0.008821   0.000000   0.000000   0.000000   0.042449
    4  S  1  S    0.249312   0.000000   0.000000   0.000000   0.009559
    5  S  1  X    0.000000   0.000000  -0.002510   0.000000   0.000000
    6  S  1  Y    0.000000   0.000000   0.000000  -0.031490   0.000000
    7  S  1  Z    0.080742   0.000000   0.000000   0.000000   0.009297
    8  S  1  X    0.000000   0.000000   0.001687   0.000000   0.000000
    9  S  1  Y    0.000000   0.000000   0.000000   0.162128   0.000000
   10  S  1  Z   -0.341653   0.000000   0.000000   0.000000  -0.025765
   11  S  1  X    0.000000   0.000000   0.045847   0.000000   0.000000
   12  S  1  Y    0.000000   0.000000   0.000000   0.000924   0.000000
   13  S  1  Z    0.101750   0.000000   0.000000   0.000000  -0.008402
   14  S  1 XX   -0.881852   0.000000   0.000000   0.000000  -0.244570
   15  S  1 YY    0.452308   0.000000   0.000000   0.000000   0.362527
   16  S  1 ZZ    0.429543   0.000000   0.000000   0.000000  -0.117957
   17  S  1 XY    0.000000   0.030763   0.000000   0.000000   0.000000
   18  S  1 XZ    0.000000   0.000000  -0.028346   0.000000   0.000000
   19  S  1 YZ    0.000000   0.000000   0.000000  -0.227275   0.000000
   20  O  2  S   -0.007253   0.000000  -0.000457   0.000000  -0.000774
   21  O  2  S    0.894855   0.000000  -0.022729   0.000000   0.219512
   22  O  2  S   -0.583484   0.000000   0.045782   0.000000  -0.122096
   23  O  2  X    0.457830   0.000000   0.006492   0.000000   0.124350
   24  O  2  Y    0.000000  -0.006977   0.000000   0.029070   0.000000
   25  O  2  Z   -0.168943   0.000000   0.009261   0.000000  -0.033088
   26  O  2  X   -0.331049   0.000000  -0.009671   0.000000  -0.091420
   27  O  2  Y    0.000000   0.017176   0.000000  -0.055052   0.000000
   28  O  2  Z    0.087489   0.000000  -0.021747   0.000000   0.027604
   29  O  2 XX    0.064967   0.000000  -0.058437   0.000000  -0.015445
   30  O  2 YY    0.131423   0.000000   0.615752   0.000000  -0.588924
   31  O  2 ZZ   -0.196389   0.000000  -0.557315   0.000000   0.604368
   32  O  2 XY    0.000000   0.204515   0.000000  -0.103252   0.000000
   33  O  2 XZ    0.329273   0.000000  -0.195939   0.000000   0.144818
   34  O  2 YZ    0.000000   0.677325   0.000000   0.710573   0.000000
   35  O  3  S   -0.007253   0.000000   0.000457   0.000000  -0.000774
   36  O  3  S    0.894855   0.000000   0.022729   0.000000   0.219512
   37  O  3  S   -0.583484   0.000000  -0.045782   0.000000  -0.122096
   38  O  3  X   -0.457830   0.000000   0.006492   0.000000  -0.124350
   39  O  3  Y    0.000000   0.006977   0.000000   0.029070   0.000000
   40  O  3  Z   -0.168943   0.000000  -0.009261   0.000000  -0.033088
   41  O  3  X    0.331049   0.000000  -0.009671   0.000000   0.091420
   42  O  3  Y    0.000000  -0.017176   0.000000  -0.055052   0.000000
   43  O  3  Z    0.087489   0.000000   0.021747   0.000000   0.027604
   44  O  3 XX    0.064967   0.000000   0.058437   0.000000  -0.015445
   45  O  3 YY    0.131423   0.000000  -0.615752   0.000000  -0.588924
   46  O  3 ZZ   -0.196389   0.000000   0.557315   0.000000   0.604368
   47  O  3 XY    0.000000   0.204515   0.000000   0.103252   0.000000
   48  O  3 XZ   -0.329273   0.000000  -0.195939   0.000000  -0.144818
   49  O  3 YZ    0.000000  -0.677325   0.000000   0.710573   0.000000

                     41         42         43         44         45
                    2.2670     2.4745     2.7361     2.7759     2.8849
                     B2         A1         B1         A2         A1  
    1  S  1  S    0.000000  -0.007752   0.000000   0.000000  -0.091671
    2  S  1  S    0.000000  -0.249927   0.000000   0.000000  -0.543482
    3  S  1  S    0.000000  -0.429136   0.000000   0.000000  -1.891600
    4  S  1  S    0.000000  -0.428605   0.000000   0.000000  -1.743865
    5  S  1  X    0.000000   0.000000   0.013049   0.000000   0.000000
    6  S  1  Y    0.099707   0.000000   0.000000   0.000000   0.000000
    7  S  1  Z    0.000000   0.077939   0.000000   0.000000   0.019307
    8  S  1  X    0.000000   0.000000  -0.428676   0.000000   0.000000
    9  S  1  Y   -0.518404   0.000000   0.000000   0.000000   0.000000
   10  S  1  Z    0.000000  -0.503263   0.000000   0.000000  -0.315767
   11  S  1  X    0.000000   0.000000  -0.204111   0.000000   0.000000
   12  S  1  Y   -0.131685   0.000000   0.000000   0.000000   0.000000
   13  S  1  Z    0.000000  -0.228777   0.000000   0.000000  -0.044512
   14  S  1 XX    0.000000   0.584328   0.000000   0.000000  -1.473056
   15  S  1 YY    0.000000  -0.164580   0.000000   0.000000   0.731336
   16  S  1 ZZ    0.000000  -0.419748   0.000000   0.000000   0.741720
   17  S  1 XY    0.000000   0.000000   0.000000   1.024408   0.000000
   18  S  1 XZ    0.000000   0.000000   0.930743   0.000000   0.000000
   19  S  1 YZ   -0.214420   0.000000   0.000000   0.000000   0.000000
   20  O  2  S    0.000000  -0.011907   0.012599   0.000000  -0.037194
   21  O  2  S    0.000000  -0.678362   0.359246   0.000000  -0.165487
   22  O  2  S    0.000000   0.780508  -0.591619   0.000000   2.054104
   23  O  2  X    0.000000  -0.249620   0.076616   0.000000   0.554268
   24  O  2  Y   -0.077720   0.000000   0.000000   0.106157   0.000000
   25  O  2  Z    0.000000   0.010680   0.071874   0.000000  -0.139596
   26  O  2  X    0.000000   0.497034  -0.218988   0.000000   0.996714
   27  O  2  Y    0.281411   0.000000   0.000000   0.346326   0.000000
   28  O  2  Z    0.000000   0.238024   0.379725   0.000000  -0.265946
   29  O  2 XX    0.000000   0.437145   0.061062   0.000000   0.816050
   30  O  2 YY    0.000000  -0.188583   0.167879   0.000000  -0.467401
   31  O  2 ZZ    0.000000  -0.248562  -0.228942   0.000000  -0.348649
   32  O  2 XY    0.759902   0.000000   0.000000   0.861257   0.000000
   33  O  2 XZ    0.000000   0.565064   0.830065   0.000000  -0.482000
   34  O  2 YZ    0.096110   0.000000   0.000000  -0.239159   0.000000
   35  O  3  S    0.000000  -0.011907  -0.012599   0.000000  -0.037194
   36  O  3  S    0.000000  -0.678362  -0.359246   0.000000  -0.165487
   37  O  3  S    0.000000   0.780508   0.591619   0.000000   2.054104
   38  O  3  X    0.000000   0.249620   0.076616   0.000000  -0.554268
   39  O  3  Y   -0.077720   0.000000   0.000000  -0.106157   0.000000
   40  O  3  Z    0.000000   0.010680  -0.071874   0.000000  -0.139596
   41  O  3  X    0.000000  -0.497034  -0.218988   0.000000  -0.996714
   42  O  3  Y    0.281411   0.000000   0.000000  -0.346326   0.000000
   43  O  3  Z    0.000000   0.238024  -0.379725   0.000000  -0.265946
   44  O  3 XX    0.000000   0.437145  -0.061062   0.000000   0.816050
   45  O  3 YY    0.000000  -0.188583  -0.167879   0.000000  -0.467401
   46  O  3 ZZ    0.000000  -0.248562   0.228942   0.000000  -0.348649
   47  O  3 XY   -0.759902   0.000000   0.000000   0.861257   0.000000
   48  O  3 XZ    0.000000  -0.565064   0.830065   0.000000   0.482000
   49  O  3 YZ    0.096110   0.000000   0.000000   0.239159   0.000000

                     46
                    2.9808
                     B1  
    1  S  1  S    0.000000
    2  S  1  S    0.000000
    3  S  1  S    0.000000
    4  S  1  S    0.000000
    5  S  1  X   -0.184633
    6  S  1  Y    0.000000
    7  S  1  Z    0.000000
    8  S  1  X    2.221670
    9  S  1  Y    0.000000
   10  S  1  Z    0.000000
   11  S  1  X    0.419701
   12  S  1  Y    0.000000
   13  S  1  Z    0.000000
   14  S  1 XX    0.000000
   15  S  1 YY    0.000000
   16  S  1 ZZ    0.000000
   17  S  1 XY    0.000000
   18  S  1 XZ    0.554604
   19  S  1 YZ    0.000000
   20  O  2  S   -0.046526
   21  O  2  S   -0.416492
   22  O  2  S    1.880944
   23  O  2  X    0.363546
   24  O  2  Y    0.000000
   25  O  2  Z   -0.005865
   26  O  2  X    0.985778
   27  O  2  Y    0.000000
   28  O  2  Z   -0.090829
   29  O  2 XX    0.942180
   30  O  2 YY   -0.430445
   31  O  2 ZZ   -0.511735
   32  O  2 XY    0.000000
   33  O  2 XZ   -0.058474
   34  O  2 YZ    0.000000
   35  O  3  S    0.046526
   36  O  3  S    0.416492
   37  O  3  S   -1.880944
   38  O  3  X    0.363546
   39  O  3  Y    0.000000
   40  O  3  Z    0.005865
   41  O  3  X    0.985778
   42  O  3  Y    0.000000
   43  O  3  Z    0.090829
   44  O  3 XX   -0.942180
   45  O  3 YY    0.430445
   46  O  3 ZZ    0.511735
   47  O  3 XY    0.000000
   48  O  3 XZ   -0.058474
   49  O  3 YZ    0.000000
 ...... END OF RHF CALCULATION ......
 STEP CPU TIME =     4.49 TOTAL CPU TIME =        4.8 (    0.1 MIN)
 TOTAL WALL CLOCK TIME=        4.8 SECONDS, CPU UTILIZATION IS  99.79%

     ---------------------------------------------------------------------
     PROPERTIES FOR THE PBE      DFT FUNCTIONAL (RHF  TYPE) DENSITY MATRIX
     ---------------------------------------------------------------------

          -----------------
          ENERGY COMPONENTS
          -----------------

         WAVEFUNCTION NORMALIZATION =       1.0000000000

                ONE ELECTRON ENERGY =   -1007.0709437172
                TWO ELECTRON ENERGY =     331.9909650534
           NUCLEAR REPULSION ENERGY =     127.2202308054
                                      ------------------
                       TOTAL ENERGY =    -547.8597478584

 ELECTRON-ELECTRON POTENTIAL ENERGY =     331.9909650534
  NUCLEUS-ELECTRON POTENTIAL ENERGY =   -1557.5558957931
   NUCLEUS-NUCLEUS POTENTIAL ENERGY =     127.2202308054
                                      ------------------
             TOTAL POTENTIAL ENERGY =   -1098.3446999343
               TOTAL KINETIC ENERGY =     550.4849520759
                 VIRIAL RATIO (V/T) =       1.9952311063

          ---------------------------------------
          MULLIKEN AND LOWDIN POPULATION ANALYSES
          ---------------------------------------

     ATOMIC MULLIKEN POPULATION IN EACH MOLECULAR ORBITAL

                      1          2          3          4          5

                  2.000000   2.000000   2.000000   2.000000   2.000000

    1             2.000115   0.000354   0.001993   2.004864   1.997147
    2            -0.000058   0.999823   0.999004  -0.002432   0.001426
    3            -0.000058   0.999823   0.999004  -0.002432   0.001426

                      6          7          8          9         10

                  2.000000   2.000000   2.000000   2.000000   2.000000

    1             1.999826   1.999744   0.756998   0.553170   0.306210
    2             0.000087   0.000128   0.621501   0.723415   0.846895
    3             0.000087   0.000128   0.621501   0.723415   0.846895

                     11         12         13         14         15

                  2.000000   2.000000   2.000000   2.000000   2.000000

    1             0.844788   0.841057   0.233478   0.246493   0.238214
    2             0.577606   0.579471   0.883261   0.876754   0.880893
    3             0.577606   0.579471   0.883261   0.876754   0.880893

                     16

                  2.000000

    1             1.750712
    2             0.124644
    3             0.124644

               ----- POPULATIONS IN EACH AO -----
                             MULLIKEN      LOWDIN
              1  S  1  S      2.00028     1.99572
              2  S  1  S      2.01169     1.92672
              3  S  1  S      0.81497     0.48554
              4  S  1  S      1.39311     0.72837
              5  S  1  X      1.99746     1.96028
              6  S  1  Y      1.99615     1.95470
              7  S  1  Z      1.99663     1.95903
              8  S  1  X      0.73948     0.62906
              9  S  1  Y      0.63431     0.57059
             10  S  1  Z      0.72630     0.67345
             11  S  1  X      0.03838     0.24595
             12  S  1  Y      0.20663     0.29171
             13  S  1  Z      0.23553     0.33180
             14  S  1 XX      0.13017     0.47256
             15  S  1 YY      0.35138     0.33415
             16  S  1 ZZ      0.24649     0.34147
             17  S  1 XY      0.24868     0.31035
             18  S  1 XZ      0.00752     0.31102
             19  S  1 YZ      0.00000     0.00740
             20  O  2  S      1.99835     1.97939
             21  O  2  S      0.82495     0.63872
             22  O  2  S      0.84944     0.49197
             23  O  2  X      1.09889     1.06387
             24  O  2  Y      0.92530     0.86574
             25  O  2  Z      1.00771     0.95511
             26  O  2  X      0.32941     0.50478
             27  O  2  Y      0.51624     0.55008
             28  O  2  Z      0.52500     0.56612
             29  O  2 XX      0.00349     0.21936
             30  O  2 YY      0.00887     0.18295
             31  O  2 ZZ      0.01273     0.18179
             32  O  2 XY      0.01186     0.01653
             33  O  2 XZ      0.00017     0.01838
             34  O  2 YZ      0.00000     0.00028
             35  O  3  S      1.99835     1.97939
             36  O  3  S      0.82495     0.63872
             37  O  3  S      0.84944     0.49197
             38  O  3  X      1.09889     1.06387
             39  O  3  Y      0.92530     0.86574
             40  O  3  Z      1.00771     0.95511
             41  O  3  X      0.32941     0.50478
             42  O  3  Y      0.51624     0.55008
             43  O  3  Z      0.52500     0.56612
             44  O  3 XX      0.00349     0.21936
             45  O  3 YY      0.00887     0.18295
             46  O  3 ZZ      0.01273     0.18179
             47  O  3 XY      0.01186     0.01653
             48  O  3 XZ      0.00017     0.01838
             49  O  3 YZ      0.00000     0.00028

          ----- MULLIKEN ATOMIC OVERLAP POPULATIONS -----
          (OFF-DIAGONAL ELEMENTS NEED TO BE MULTIPLIED BY 2)

             1           2           3

    1   15.8016509
    2   -0.0132447   8.0415881
    3   -0.0132447   0.0840758   8.0415881

          TOTAL MULLIKEN AND LOWDIN ATOMIC POPULATIONS
       ATOM         MULL.POP.    CHARGE          LOW.POP.     CHARGE
    1 S            15.775162    0.224838        15.529865    0.470135
    2 O             8.112419   -0.112419         8.235067   -0.235067
    3 O             8.112419   -0.112419         8.235067   -0.235067

          MULLIKEN SPHERICAL HARMONIC POPULATIONS
       ATOM           S       P       D      F      G      H      I    TOTAL
    1 S             6.22    8.57    0.98   0.00   0.00   0.00   0.00   15.78
    2 O             3.67    4.40    0.04   0.00   0.00   0.00   0.00    8.11
    3 O             3.67    4.40    0.04   0.00   0.00   0.00   0.00    8.11

          -------------------------------
          BOND ORDER AND VALENCE ANALYSIS     BOND ORDER THRESHOLD=0.050
          -------------------------------

                   BOND                       BOND                       BOND
  ATOM PAIR DIST  ORDER      ATOM PAIR DIST  ORDER      ATOM PAIR DIST  ORDER
    1   2  1.200  2.038        1   3  1.200  2.038        2   3  2.364  0.129

                       TOTAL       BONDED        FREE
      ATOM            VALENCE     VALENCE     VALENCE
    1 S                 4.076       4.076       0.000
    2 O                 2.167       2.167       0.000
    3 O                 2.167       2.167       0.000

          ---------------------
          ELECTROSTATIC MOMENTS
          ---------------------

 POINT   1           X           Y           Z (BOHR)    CHARGE
                 0.000000    0.000000    0.000000        0.00 (A.U.)
         DX          DY          DZ         /D/  (DEBYE)
     0.000000    0.000000    0.642473    0.642473
 ...... END OF PROPERTY EVALUATION ......
 STEP CPU TIME =     0.05 TOTAL CPU TIME =        4.9 (    0.1 MIN)
 TOTAL WALL CLOCK TIME=        4.9 SECONDS, CPU UTILIZATION IS 100.00%
               580000  WORDS OF DYNAMIC MEMORY USED
 EXECUTION OF GAMESS TERMINATED NORMALLY Thu Feb 26 00:13:33 2015
 DDI: 263624 bytes (0.3 MB / 0 MWords) used by master data server.

 ----------------------------------------
 CPU timing information for all processes
 ========================================
 0: 4.674 + 0.199 = 4.874
 ----------------------------------------
 ddikick.x: exited gracefully.
----- accounting info -----
Files used on the master node dftfe.crc.nd.edu were:
-rw-r--r-- 1 pmehta1 campus   37475 Feb 26 00:13 /tmp/gamess.dat
-rw-r--r-- 1 pmehta1 campus     142 Feb 26 00:13 /tmp/gamess.F05
-rw-r--r-- 1 pmehta1 campus 2160288 Feb 26 00:13 /tmp/gamess.F08
-rw-r--r-- 1 pmehta1 campus 1220440 Feb 26 00:13 /tmp/gamess.F10
Thu Feb 26 00:13:36 EST 2015
0.240u 0.184s 0:08.31 5.0%	0+0k 0+112io 0pf+0w
