----- GAMESS execution script 'rungms' -----
This job is running on host dftfe.crc.nd.edu
under operating system Linux at Thu Feb 26 00:18:44 EST 2015
Available scratch disk space (Kbyte units) at beginning of the job is
Filesystem     1K-blocks     Used Available Use% Mounted on
/dev/sda2      147771864 22815068 117450364  17% /
GAMESS temporary binary files will be written to /tmp
GAMESS supplementary output files will be written to /tmp
Copying input file gamess.inp to your run's scratch directory...

 Distributed Data Interface kickoff program.
 Initiating 1 compute processes on 1 nodes to run the following command:
 /opt/crc/gamess/2012R1/gamess/gamess.00.x gamess 

          ******************************************************
          *         GAMESS VERSION =  1 MAY 2012 (R1)          *
          *             FROM IOWA STATE UNIVERSITY             *
          * M.W.SCHMIDT, K.K.BALDRIDGE, J.A.BOATZ, S.T.ELBERT, *
          *   M.S.GORDON, J.H.JENSEN, S.KOSEKI, N.MATSUNAGA,   *
          *          K.A.NGUYEN, S.J.SU, T.L.WINDUS,           *
          *       TOGETHER WITH M.DUPUIS, J.A.MONTGOMERY       *
          *         J.COMPUT.CHEM.  14, 1347-1363(1993)        *
          **************** 64 BIT LINUX VERSION ****************

  SINCE 1993, STUDENTS AND POSTDOCS WORKING AT IOWA STATE UNIVERSITY
  AND ALSO IN THEIR VARIOUS JOBS AFTER LEAVING ISU HAVE MADE IMPORTANT
  CONTRIBUTIONS TO THE CODE:
     IVANA ADAMOVIC, CHRISTINE AIKENS, YURI ALEXEEV, POOJA ARORA,
     ANDREY ASADCHEV, ROB BELL, PRADIPTA BANDYOPADHYAY, JONATHAN BENTZ,
     BRETT BODE, GALINA CHABAN, WEI CHEN, CHEOL HO CHOI, PAUL DAY,
     ALBERT DEFUSCO, TIM DUDLEY, DMITRI FEDOROV, GRAHAM FLETCHER,
     MARK FREITAG, KURT GLAESEMANN, DAN KEMP, GRANT MERRILL,
     NORIYUKI MINEZAWA, JONATHAN MULLIN, TAKESHI NAGATA,
     SEAN NEDD, HEATHER NETZLOFF, BOSILJKA NJEGIC, RYAN OLSON, MIKE PAK,
     JIM SHOEMAKER, LYUDMILA SLIPCHENKO, SAROM SOK, JIE SONG,
     TETSUYA TAKETSUGU, SIMON WEBB, SOOHAENG YOO, FEDERICO ZAHARIEV

  ADDITIONAL CODE HAS BEEN PROVIDED BY COLLABORATORS IN OTHER GROUPS:
     IOWA STATE UNIVERSITY:
          JOE IVANIC, LAIMUTIS BYTAUTAS, KLAUS RUEDENBERG
     UNIVERSITY OF TOKYO: KIMIHIKO HIRAO, TAKAHITO NAKAJIMA,
          TAKAO TSUNEDA, MUNEAKI KAMIYA, SUSUMU YANAGISAWA,
          KIYOSHI YAGI, MAHITO CHIBA, SEIKEN TOKURA, NAOAKI KAWAKAMI
     UNIVERSITY OF AARHUS: FRANK JENSEN
     UNIVERSITY OF IOWA: VISVALDAS KAIRYS, HUI LI
     NATIONAL INST. OF STANDARDS AND TECHNOLOGY: WALT STEVENS, DAVID GARMER
     UNIVERSITY OF PISA: BENEDETTA MENNUCCI, JACOPO TOMASI
     UNIVERSITY OF MEMPHIS: HENRY KURTZ, PRAKASHAN KORAMBATH
     UNIVERSITY OF ALBERTA: TOBY ZENG, MARIUSZ KLOBUKOWSKI
     UNIVERSITY OF NEW ENGLAND: MARK SPACKMAN
     MIE UNIVERSITY: HIROAKI UMEDA
     MICHIGAN STATE UNIVERSITY:
          KAROL KOWALSKI, MARTA WLOCH, JEFFREY GOUR, JESSE LUTZ, PIOTR PIECUCH
     UNIVERSITY OF SILESIA: MONIKA MUSIAL, STANISLAW KUCHARSKI
     FACULTES UNIVERSITAIRES NOTRE-DAME DE LA PAIX:
          OLIVIER QUINET, BENOIT CHAMPAGNE
     UNIVERSITY OF CALIFORNIA - SANTA BARBARA: BERNARD KIRTMAN
     INSTITUTE FOR MOLECULAR SCIENCE:
          KAZUYA ISHIMURA, MICHIO KATOUDA, AND SHIGERU NAGASE
     UNIVERSITY OF NOTRE DAME: DAN CHIPMAN
     KYUSHU UNIVERSITY:
          HARUYUKI NAKANO,
          FENG LONG GU, JACEK KORCHOWIEC, MARCIN MAKOWSKI, AND YURIKO AOKI,
          HIROTOSHI MORI AND EISAKU MIYOSHI
     PENNSYLVANIA STATE UNIVERSITY:
          TZVETELIN IORDANOV, CHET SWALINA, JONATHAN SKONE,
          SHARON HAMMES-SCHIFFER
     WASEDA UNIVERSITY:
          MASATO KOBAYASHI, TOMOKO AKAMA, TSUGUKI TOUMA,
          TAKESHI YOSHIKAWA, YASUHIRO IKABATA, HIROMI NAKAI
     UNIVERSITY OF NEBRASKA:
          PEIFENG SU, DEJUN SI, NANDUN THELLAMUREGE, YALI WANG, HUI LI
     UNIVERSITY OF ZURICH:
          ROBERTO PEVERATI, KIM BALDRIDGE
     N. COPERNICUS UNIVERSITY AND JACKSON STATE UNIVERSITY:
          MARIA BARYSZ

 EXECUTION OF GAMESS BEGUN Thu Feb 26 00:18:44 2015

            ECHO OF THE FIRST FEW INPUT CARDS -
 INPUT CARD> $BASIS GBASIS=PC1 $END                                                         
 INPUT CARD> $CONTRL COORD=ZMT ISPHER=1 RUNTYP=ENERGY DFTTYP=PBE $END                       
 INPUT CARD>                                                                                
 INPUT CARD> $DATA                                                                          
 INPUT CARD>Title                                                                           
 INPUT CARD>Cnv 2                                                                           
 INPUT CARD>                                                                                
 INPUT CARD>S                                                                               
 INPUT CARD>O 1 1.60                                                                        
 INPUT CARD>O 1 1.60 2 170.0                                                                
 INPUT CARD> $END                                                                           
    1000000 WORDS OF MEMORY AVAILABLE

     BASIS OPTIONS
     -------------
     GBASIS=PC1          IGAUSS=       0      POLAR=NONE    
     NDFUNC=       0     NFFUNC=       0     DIFFSP=       F
     NPFUNC=       0      DIFFS=       F     BASNAM=        


     RUN TITLE
     ---------
 Title                                                                           

 THE POINT GROUP OF THE MOLECULE IS CNV     
 THE ORDER OF THE PRINCIPAL AXIS IS     2

 YOUR FULLY SUBSTITUTED Z-MATRIX IS
 S   
 O      1   1.6000000
 O      1   1.6000000  2  170.0000

 THE MOMENTS OF INERTIA ARE (AMU-ANGSTROM**2)
 IXX=     0.311   IYY=    81.272   IZZ=    81.583

 ATOM      ATOMIC                      COORDINATES (BOHR)
           CHARGE         X                   Y                   Z
 S          16.0     0.0000000000        0.0000000000       -0.1317969423
 O           8.0    -3.0120560157        0.0000000000        0.1317238129
 O           8.0     3.0120560157        0.0000000000        0.1317238129

          INTERNUCLEAR DISTANCES (ANGS.)
          ------------------------------

                1 S          2 O          3 O     

   1 S       0.0000000    1.6000000 *  1.6000000 *
   2 O       1.6000000 *  0.0000000    3.1878230  
   3 O       1.6000000 *  3.1878230    0.0000000  

  * ... LESS THAN  3.000


     ATOMIC BASIS SET
     ----------------
 THE CONTRACTED PRIMITIVE FUNCTIONS HAVE BEEN UNNORMALIZED
 THE CONTRACTED BASIS FUNCTIONS ARE NOW NORMALIZED TO UNITY

  SHELL TYPE  PRIMITIVE        EXPONENT          CONTRACTION COEFFICIENT(S)

 S         

      1   S       1         55510.0000000    0.000587229760
      1   S       2          8326.7000000    0.004532413947
      1   S       3          1895.6000000    0.023265261648
      1   S       4           536.7700000    0.089696133027
      1   S       5           174.6700000    0.254098332277
      1   S       6            62.5780000    0.438665087637
      1   S       7            23.5730000    0.314547135094
      1   S       8             5.8908000    0.032727897102

      2   S       9          8326.7000000   -0.000019755715
      2   S      10          1895.6000000   -0.000043822381
      2   S      11           536.7700000   -0.001730264906
      2   S      12           174.6700000   -0.009381263460
      2   S      13            62.5780000   -0.064050766303
      2   S      14            23.5730000   -0.082478179196
      2   S      15             5.8908000    0.478342956889
      2   S      16             2.1852000    0.626896670208

      3   S      17          1895.6000000    0.000016227260
      3   S      18           536.7700000    0.000191135619
      3   S      19           174.6700000    0.001952069674
      3   S      20            62.5780000    0.010578701087
      3   S      21            23.5730000    0.022164934551
      3   S      22             5.8908000   -0.184968323118
      3   S      23             2.1852000   -0.480920750976
      3   S      24             0.4528200    1.243822243872

      4   S      25             0.1620200    1.000000000000

      5   P      26           395.4500000    0.004642761329
      5   P      27            92.8340000    0.036023396489
      5   P      28            29.2660000    0.149058869978
      5   P      29            10.5950000    0.360033266263
      5   P      30             4.0272000    0.455756476221
      5   P      31             1.5484000    0.206167664178

      6   P      32            92.8340000    0.000169901442
      6   P      33            29.2660000   -0.002541839934
      6   P      34            10.5950000   -0.007867614595
      6   P      35             4.0272000   -0.037231009184
      6   P      36             1.5484000    0.161417246830
      6   P      37             0.4613400    0.902230419976

      7   P      38             0.1313100    1.000000000000

      8   D      39             0.5500000    1.000000000000

 O         

     15   S      40          2306.7000000    0.005424388755
     15   S      41           347.1500000    0.040474749465
     15   S      42            78.8900000    0.180219634554
     15   S      43            21.8760000    0.462370311787
     15   S      44             6.6646000    0.454888396263

     16   S      45           347.1500000   -0.000655003786
     16   S      46            78.8900000   -0.005362052952
     16   S      47            21.8760000   -0.074902158894
     16   S      48             6.6646000   -0.181442579655
     16   S      49             1.0669000    1.102006874042

     17   S      50             0.3070000    1.000000000000

     18   P      51            17.0220000    0.068979967443
     18   P      52             3.6838000    0.351985516325
     18   P      53             0.9923400    0.724036547822

     19   P      54             0.2448700    1.000000000000

     20   D      55             1.0000000    1.000000000000

 TOTAL NUMBER OF BASIS SET SHELLS             =   20
 NUMBER OF CARTESIAN GAUSSIAN BASIS FUNCTIONS =   49
 NOTE: THIS RUN WILL RESTRICT THE MO VARIATION SPACE TO SPHERICAL HARMONICS.
 THE NUMBER OF ORBITALS KEPT IN THE VARIATIONAL SPACE WILL BE PRINTED LATER.
 NUMBER OF ELECTRONS                          =   32
 CHARGE OF MOLECULE                           =    0
 SPIN MULTIPLICITY                            =    1
 NUMBER OF OCCUPIED ORBITALS (ALPHA)          =   16
 NUMBER OF OCCUPIED ORBITALS (BETA )          =   16
 TOTAL NUMBER OF ATOMS                        =    3
 THE NUCLEAR REPULSION ENERGY IS       95.2923322857

     LEBEDEV GRID-BASED DFT OPTIONS
     ------------------------------
     DFTTYP=PBE     
     NRAD  =      96     NLEB  =     302
     NRAD0 =      24     NLEB0 =     110
     SWOFF =    5.00E-03 (PURE SCF -> DFT)
     SWITCH=    3.00E-04 (COARSE -> TIGHT GRID)
     THRESH=    0.00E+00 GTHRE=    1.00E+00

 GRIMME'S EMPIRICAL DISPERSION CORRECTION= F

     $CONTRL OPTIONS
     ---------------
 SCFTYP=RHF          RUNTYP=ENERGY       EXETYP=RUN     
 MPLEVL=       0     CITYP =NONE         CCTYP =NONE         VBTYP =NONE    
 DFTTYP=PBE          TDDFT =NONE    
 MULT  =       1     ICHARG=       0     NZVAR =       0     COORD =ZMT     
 PP    =NONE         RELWFN=NONE         LOCAL =NONE         NUMGRD=       F
 ISPHER=       1     NOSYM =       0     MAXIT =      30     UNITS =ANGS    
 PLTORB=       F     MOLPLT=       F     AIMPAC=       F     FRIEND=        
 NPRINT=       7     IREST =       0     GEOM  =INPUT   
 NORMF =       0     NORMP =       0     ITOL  =      20     ICUT  =       9
 INTTYP=BEST         GRDTYP=BEST         QMTTOL= 1.0E-06

     $SYSTEM OPTIONS
     ---------------
  REPLICATED MEMORY=     1000000 WORDS (ON EVERY NODE).
 DISTRIBUTED MEMDDI=           0 MILLION WORDS IN AGGREGATE,
 MEMDDI DISTRIBUTED OVER   1 PROCESSORS IS           0 WORDS/PROCESSOR.
 TOTAL MEMORY REQUESTED ON EACH PROCESSOR=     1000000 WORDS.
 TIMLIM=      525600.00 MINUTES, OR     365.0 DAYS.
 PARALL= F  BALTYP=  DLB     KDIAG=    0  COREFL= F
 MXSEQ2=     300 MXSEQ3=     150

          ----------------
          PROPERTIES INPUT
          ----------------

     MOMENTS            FIELD           POTENTIAL          DENSITY
 IEMOM =       1   IEFLD =       0   IEPOT =       0   IEDEN =       0
 WHERE =COMASS     WHERE =NUCLEI     WHERE =NUCLEI     WHERE =NUCLEI  
 OUTPUT=BOTH       OUTPUT=BOTH       OUTPUT=BOTH       OUTPUT=BOTH    
 IEMINT=       0   IEFINT=       0                     IEDINT=       0
                                                       MORB  =       0
          EXTRAPOLATION IN EFFECT
          DIIS IN EFFECT
 ORBITAL PRINTING OPTION: NPREO=     1    49     2     1

     -------------------------------
     INTEGRAL TRANSFORMATION OPTIONS
     -------------------------------
     NWORD  =            0
     CUTOFF = 1.0E-09     MPTRAN =       0
     DIRTRF =       F     AOINTS =DUP     

          ----------------------
          INTEGRAL INPUT OPTIONS
          ----------------------
 NOPK  =       1 NORDER=       0 SCHWRZ=       F

   --- ENCODED Z MATRIX ---
 COORD  TYPE   I   J   K   L   M   N
    1      1    3   1
    2      1    2   1
    3      2    2   1   3

 THE DETERMINANT OF THE G MATRIX IS 10**(    -4)

 THE DETERMINANT OF THE G MATRIX IS 10**(    -4)
 * * * WARNING * * *
 YOUR B MATRIX HAS A SMALL DETERMINANT.
 THIS SUGGESTS YOU MAY HAVE BADLY CHOSEN COORDINATES.

     ------------------------------------------
     THE POINT GROUP IS CNV, NAXIS= 2, ORDER= 4
     ------------------------------------------

 -- VARIATIONAL SPACE WILL BE RESTRICTED TO PURE SPHERICAL HARMONICS ONLY --
 AFTER EXCLUDING CONTAMINANT COMBINATIONS FROM THE CARTESIAN GAUSSIAN BASIS
 SET, THE NUMBER OF SPHERICAL HARMONICS KEPT IN THE VARIATION SPACE IS   46

     DIMENSIONS OF THE SYMMETRY SUBSPACES ARE
 A1  =   19     A2  =    5     B1  =   14     B2  =    8

 ..... DONE SETTING UP THE RUN .....
 STEP CPU TIME =     0.01 TOTAL CPU TIME =        0.0 (    0.0 MIN)
 TOTAL WALL CLOCK TIME=        0.0 SECONDS, CPU UTILIZATION IS  50.00%

          ********************
          1 ELECTRON INTEGRALS
          ********************
 ...... END OF ONE-ELECTRON INTEGRALS ......
 STEP CPU TIME =     0.00 TOTAL CPU TIME =        0.0 (    0.0 MIN)
 TOTAL WALL CLOCK TIME=        0.0 SECONDS, CPU UTILIZATION IS  50.00%

          -------------
          GUESS OPTIONS
          -------------
          GUESS =HUCKEL            NORB  =       0          NORDER=       0
          MIX   =       F          PRTMO =       F          PUNMO =       F
          TOLZ  = 1.0E-08          TOLE  = 1.0E-05
          SYMDEN=       F          PURIFY=       F

 INITIAL GUESS ORBITALS GENERATED BY HUCKEL   ROUTINE.
 HUCKEL GUESS REQUIRES     21583 WORDS.

 STATISTICS FOR GENERATION OF SYMMETRY ORBITAL -Q- MATRIX
 NUMBER OF CARTESIAN ATOMIC ORBITALS=         49
 NUMBER OF SPHERICAL CONTAMINANTS DROPPED=     3
 NUMBER OF LINEARLY DEPENDENT MOS DROPPED=     0
 TOTAL NUMBER OF MOS IN VARIATION SPACE=      46

 SYMMETRIES FOR INITIAL GUESS ORBITALS FOLLOW.   BOTH SET(S).
    16 ORBITALS ARE OCCUPIED (    7 CORE ORBITALS).
     8=?B1      9=?A1     10=A1      11=B2      12=A1      13=B1      14=A2  
    15=B1      16=?A1     17=B2      18=A1      19=B1      20=A1      21=A1  
    22=A1      23=A1      24=A1      25=A1      26=A1  
 ...... END OF INITIAL ORBITAL SELECTION ......
 STEP CPU TIME =     0.01 TOTAL CPU TIME =        0.0 (    0.0 MIN)
 TOTAL WALL CLOCK TIME=        0.0 SECONDS, CPU UTILIZATION IS  66.67%

                    ----------------------
                    AO INTEGRAL TECHNOLOGY
                    ----------------------
     S,P,L SHELL ROTATED AXIS INTEGRALS, REPROGRAMMED BY
        KAZUYA ISHIMURA (IMS) AND JOSE SIERRA (SYNSTAR).
     S,P,D,L SHELL ROTATED AXIS INTEGRALS PROGRAMMED BY
        KAZUYA ISHIMURA (INSTITUTE FOR MOLECULAR SCIENCE).
     S,P,D,F,G SHELL TO TOTAL QUARTET ANGULAR MOMENTUM SUM 5,
        ERIC PROGRAM BY GRAHAM FLETCHER (ELORET AND NASA ADVANCED
        SUPERCOMPUTING DIVISION, AMES RESEARCH CENTER).
     S,P,D,F,G,L SHELL GENERAL RYS QUADRATURE PROGRAMMED BY
        MICHEL DUPUIS (PACIFIC NORTHWEST NATIONAL LABORATORY).

          --------------------
          2 ELECTRON INTEGRALS
          --------------------

 THE -PK- OPTION IS OFF, THE INTEGRALS ARE NOT IN SUPERMATRIX FORM.
 STORING   15000 INTEGRALS/RECORD ON DISK, USING 12 BYTES/INTEGRAL.
 TWO ELECTRON INTEGRAL EVALUATION REQUIRES   90606 WORDS OF MEMORY.
 II,JST,KST,LST =  1  1  1  1 NREC =         1 INTLOC =    1
 II,JST,KST,LST =  2  1  1  1 NREC =         1 INTLOC =    2
 II,JST,KST,LST =  3  1  1  1 NREC =         1 INTLOC =    7
 II,JST,KST,LST =  4  1  1  1 NREC =         1 INTLOC =   22
 II,JST,KST,LST =  5  1  1  1 NREC =         1 INTLOC =   56
 II,JST,KST,LST =  6  1  1  1 NREC =         1 INTLOC =  125
 II,JST,KST,LST =  7  1  1  1 NREC =         1 INTLOC =  329
 II,JST,KST,LST =  8  1  1  1 NREC =         1 INTLOC =  776
 II,JST,KST,LST =  9  1  1  1 NREC =         1 INTLOC = 2864
 II,JST,KST,LST = 10  1  1  1 NREC =         1 INTLOC = 2864
 II,JST,KST,LST = 11  1  1  1 NREC =         1 INTLOC = 2864
 II,JST,KST,LST = 12  1  1  1 NREC =         1 INTLOC = 2864
 II,JST,KST,LST = 13  1  1  1 NREC =         1 INTLOC = 2864
 II,JST,KST,LST = 14  1  1  1 NREC =         1 INTLOC = 2864
 II,JST,KST,LST = 15  1  1  1 NREC =         1 INTLOC = 2864
 II,JST,KST,LST = 16  1  1  1 NREC =         1 INTLOC = 5005
 II,JST,KST,LST = 17  1  1  1 NREC =         1 INTLOC = 8091
 II,JST,KST,LST = 18  1  1  1 NREC =         1 INTLOC =12478
 II,JST,KST,LST = 19  1  1  1 NREC =         2 INTLOC =13664
 II,JST,KST,LST = 20  1  1  1 NREC =         4 INTLOC =14017
 TOTAL NUMBER OF NONZERO TWO-ELECTRON INTEGRALS =              159589
         11 INTEGRAL RECORDS WERE STORED ON DISK FILE  8.
  ...... END OF TWO-ELECTRON INTEGRALS .....
 STEP CPU TIME =     0.15 TOTAL CPU TIME =        0.2 (    0.0 MIN)
 TOTAL WALL CLOCK TIME=        0.2 SECONDS, CPU UTILIZATION IS  94.44%

          --------------------------
               R-PBE SCF CALCULATION
          --------------------------

     NUCLEAR ENERGY =        95.2923322857
     MAXIT =   30     NPUNCH=    2
     EXTRAP=T  DAMP=F  SHIFT=F  RSTRCT=F  DIIS=T  DEM=F  SOSCF=F
         DENSITY MATRIX CONVERGENCE THRESHOLD=  1.00E-05
     COARSE -> FINE DFT GRID SWITCH THRESHOLD=  3.00E-04 (SWITCH IN $DFT)
                   HF -> DFT SWITCH THRESHOLD=  5.00E-03 (SWOFF IN $DFT)
     MEMORY REQUIRED FOR RHF ITERS=    183108 WORDS.

 DFT CODE IS SWITCHING FROM THE FINE GRID NRAD= 96,  NLEB=  302
                      TO THE COARSE GRID NRAD0= 24, NLEB0=  110

     EXCHANGE FUNCTIONAL   =PBE       
     CORRELATION FUNCTIONAL=PBE       
     DFT THRESHOLD         =.460E-07
     GRID CHANGE THRESHOLD =.300E-03
 FOR AN EULER-MACLAURIN QUADRATURE USING  96 RADIAL POINTS:
 SMALLEST GAUSSIAN PRIMITIVE EXPONENT=        0.1313100000 OF TYPE -P-
 ON ATOM NUMBER   1 HAS RADIAL NORMALIZATION=  1.000000
  LARGEST GAUSSIAN PRIMITIVE EXPONENT=    55510.0000000000 OF TYPE -S-
 ON ATOM NUMBER   1 HAS RADIAL NORMALIZATION=  0.999999
 DFT IS SWITCHED OFF, PERFORMING PURE SCF UNTIL SWOFF THRESHOLD IS REACHED.

 ITER EX DEM     TOTAL ENERGY        E CHANGE  DENSITY CHANGE    DIIS ERROR
   1  0  0     -545.8790162333  -545.8790162333   0.438924322   1.416911617
          * * *   INITIATING DIIS PROCEDURE   * * *
   2  1  0     -546.4758144449    -0.5967982116   0.556854978   0.390386310
   3  2  0     -546.5451348648    -0.0693204199   0.198489516   0.380658300
   4  3  0     -546.8913143245    -0.3461794597   0.064538371   0.026778855
   5  4  0     -546.9016088420    -0.0102945176   0.074988939   0.022405382
   6  5  0     -546.9089859749    -0.0073771328   0.105161075   0.019532990
   7  6  0     -546.9184287723    -0.0094427974   0.124940604   0.015411665
   8  7  0     -546.9274123498    -0.0089835775   0.095039066   0.010538106
   9  8  0     -546.9317780523    -0.0043657025   0.040698179   0.005281766
  10  9  0     -546.9327498941    -0.0009718418   0.025783039   0.002654670
  11 10  0     -546.9329771334    -0.0002272393   0.003142131   0.002996437
 CONVERGED TO SWOFF, SO DFT CALCULATION IS NOW SWITCHED ON.
          * * *   INITIATING DIIS PROCEDURE   * * *
  12 11  0     -548.1310847608    -1.1981076275   0.308583655   0.108322321
  13 12  0     -548.1009371247     0.0301476361   0.250725710   0.138947491
  14 13  0     -548.1305830145    -0.0296458898   0.114820668   0.150363987
  15 14  0     -548.1739120810    -0.0433290665   0.094336695   0.034816877
  16 15  0     -548.1791618621    -0.0052497810   0.027737732   0.009258883
  17 16  0     -548.1796352981    -0.0004734360   0.004452268   0.001146603
  18 17  0     -548.1796426974    -0.0000073994   0.000285336   0.000104029
 DFT CODE IS SWITCHING BACK TO THE FINE GRID
          * * *   INITIATING DIIS PROCEDURE   * * *
  19 18  0     -548.1747174387     0.0049252587   0.006498717   0.011420140
  20 19  0     -548.1747211825    -0.0000037438   0.015604998   0.009036445
  21 20  0     -548.1744951222     0.0002260603   0.009766050   0.013458631
  22 21  0     -548.1749075443    -0.0004124221   0.000572362   0.000366509
  23 22  0     -548.1749078534    -0.0000003091   0.000315616   0.000129290
  24 23  0     -548.1749079181    -0.0000000646   0.000027717   0.000011000
  25 24  0     -548.1749079188    -0.0000000007   0.000004862   0.000002378
  26 25  0     -548.1749079188     0.0000000000   0.000000961   0.000000605

          -----------------
          DENSITY CONVERGED
          -----------------
     TIME TO FORM FOCK OPERATORS=       4.3 SECONDS (       0.2 SEC/ITER)
     TIME TO SOLVE SCF EQUATIONS=       0.0 SECONDS (       0.0 SEC/ITER)

 FINAL R-PBE ENERGY IS     -548.1749079188 AFTER  26 ITERATIONS
 DFT EXCHANGE + CORRELATION ENERGY =       -42.3420679445
 TOTAL ELECTRON NUMBER             =        31.9999983371

          ------------
          EIGENVECTORS
          ------------

                      1          2          3          4          5
                  -88.2246   -18.8186   -18.8185    -7.8371    -5.8592
                     A1         B1         A1         A1         B1  
    1  S  1  S    1.002983   0.000000  -0.000027  -0.274130   0.000000
    2  S  1  S   -0.010310   0.000000  -0.000432   1.039326   0.000000
    3  S  1  S    0.001778   0.000000  -0.000674   0.040063   0.000000
    4  S  1  S   -0.000692   0.000000   0.006522  -0.010138   0.000000
    5  S  1  X    0.000000   0.000153   0.000000   0.000000   0.996952
    6  S  1  Y    0.000000   0.000000   0.000000   0.000000   0.000000
    7  S  1  Z    0.000036   0.000000  -0.000008   0.006379   0.000000
    8  S  1  X    0.000000  -0.001834   0.000000   0.000000   0.008433
    9  S  1  Y    0.000000   0.000000   0.000000   0.000000   0.000000
   10  S  1  Z    0.000004   0.000000   0.000136   0.000533   0.000000
   11  S  1  X    0.000000  -0.008965   0.000000   0.000000  -0.000714
   12  S  1  Y    0.000000   0.000000   0.000000   0.000000   0.000000
   13  S  1  Z    0.000006   0.000000   0.000517  -0.000138   0.000000
   14  S  1 XX    0.000143   0.000000   0.001068   0.001595   0.000000
   15  S  1 YY   -0.000072   0.000000  -0.000547  -0.000791   0.000000
   16  S  1 ZZ   -0.000071   0.000000  -0.000522  -0.000804   0.000000
   17  S  1 XY    0.000000   0.000000   0.000000   0.000000   0.000000
   18  S  1 XZ    0.000000  -0.000327   0.000000   0.000000   0.000428
   19  S  1 YZ    0.000000   0.000000   0.000000   0.000000   0.000000
   20  O  2  S    0.000011   0.703338   0.703221   0.000060   0.000239
   21  O  2  S    0.000059   0.026594   0.025073   0.000253   0.000179
   22  O  2  S   -0.000102  -0.015051  -0.010331  -0.000655  -0.000871
   23  O  2  X   -0.000022   0.000802   0.000770  -0.000388  -0.000376
   24  O  2  Y    0.000000   0.000000   0.000000   0.000000   0.000000
   25  O  2  Z    0.000002  -0.000094   0.000019   0.000028   0.000024
   26  O  2  X   -0.000160  -0.003652  -0.002757  -0.001447  -0.000503
   27  O  2  Y    0.000000   0.000000   0.000000   0.000000   0.000000
   28  O  2  Z    0.000017   0.000554   0.000048   0.000177   0.000132
   29  O  2 XX   -0.000139  -0.000377  -0.000481  -0.000984  -0.000639
   30  O  2 YY    0.000070   0.000194   0.000246   0.000499   0.000328
   31  O  2 ZZ    0.000068   0.000183   0.000236   0.000485   0.000312
   32  O  2 XY    0.000000   0.000000   0.000000   0.000000   0.000000
   33  O  2 XZ    0.000024   0.000080   0.000069   0.000168   0.000151
   34  O  2 YZ    0.000000   0.000000   0.000000   0.000000   0.000000
   35  O  3  S    0.000011  -0.703338   0.703221   0.000060  -0.000239
   36  O  3  S    0.000059  -0.026594   0.025073   0.000253  -0.000179
   37  O  3  S   -0.000102   0.015051  -0.010331  -0.000655   0.000871
   38  O  3  X    0.000022   0.000802  -0.000770   0.000388  -0.000376
   39  O  3  Y    0.000000   0.000000   0.000000   0.000000   0.000000
   40  O  3  Z    0.000002   0.000094   0.000019   0.000028  -0.000024
   41  O  3  X    0.000160  -0.003652   0.002757   0.001447  -0.000503
   42  O  3  Y    0.000000   0.000000   0.000000   0.000000   0.000000
   43  O  3  Z    0.000017  -0.000554   0.000048   0.000177  -0.000132
   44  O  3 XX   -0.000139   0.000377  -0.000481  -0.000984   0.000639
   45  O  3 YY    0.000070  -0.000194   0.000246   0.000499  -0.000328
   46  O  3 ZZ    0.000068  -0.000183   0.000236   0.000485  -0.000312
   47  O  3 XY    0.000000   0.000000   0.000000   0.000000   0.000000
   48  O  3 XZ   -0.000024   0.000080  -0.000069  -0.000168   0.000151
   49  O  3 YZ    0.000000   0.000000   0.000000   0.000000   0.000000

                      6          7          8          9         10
                   -5.8563    -5.8555    -0.9810    -0.9344    -0.6147
                     B2         A1         A1         B1         A1  
    1  S  1  S    0.000000   0.001794   0.047185   0.000000   0.068590
    2  S  1  S    0.000000  -0.006743  -0.139883   0.000000  -0.193905
    3  S  1  S    0.000000   0.000186   0.273556   0.000000   0.432991
    4  S  1  S    0.000000  -0.000501   0.180753   0.000000   0.406119
    5  S  1  X    0.000000   0.000000   0.000000   0.112220   0.000000
    6  S  1  Y    0.997068   0.000000   0.000000   0.000000   0.000000
    7  S  1  Z    0.000000   0.997060  -0.012501   0.000000  -0.005792
    8  S  1  X    0.000000   0.000000   0.000000  -0.216328   0.000000
    9  S  1  Y    0.008393   0.000000   0.000000   0.000000   0.000000
   10  S  1  Z    0.000000   0.008345   0.026846   0.000000   0.017431
   11  S  1  X    0.000000   0.000000   0.000000  -0.008993   0.000000
   12  S  1  Y   -0.000038   0.000000   0.000000   0.000000   0.000000
   13  S  1  Z    0.000000  -0.000045   0.004009   0.000000   0.001490
   14  S  1 XX    0.000000  -0.000419   0.065200   0.000000  -0.021730
   15  S  1 YY    0.000000  -0.000146  -0.033029   0.000000   0.011315
   16  S  1 ZZ    0.000000   0.000566  -0.032172   0.000000   0.010415
   17  S  1 XY    0.000000   0.000000   0.000000   0.000000   0.000000
   18  S  1 XZ    0.000000   0.000000   0.000000  -0.013571   0.000000
   19  S  1 YZ    0.000412   0.000000   0.000000   0.000000   0.000000
   20  O  2  S    0.000000  -0.000030  -0.127850  -0.148137   0.102903
   21  O  2  S    0.000000  -0.000067   0.258728   0.294065  -0.212445
   22  O  2  S    0.000000   0.000290   0.294522   0.378812  -0.342584
   23  O  2  X    0.000000   0.000070   0.092820   0.087264   0.152536
   24  O  2  Y    0.000019   0.000000   0.000000   0.000000   0.000000
   25  O  2  Z    0.000000   0.000013  -0.005339  -0.005246  -0.009231
   26  O  2  X    0.000000   0.000183   0.035093   0.045775   0.070104
   27  O  2  Y   -0.000012   0.000000   0.000000   0.000000   0.000000
   28  O  2  Z    0.000000  -0.000031  -0.000860  -0.003696  -0.002648
   29  O  2 XX    0.000000   0.000127   0.007623   0.009149   0.011319
   30  O  2 YY    0.000000  -0.000052  -0.003536  -0.004343  -0.005906
   31  O  2 ZZ    0.000000  -0.000075  -0.004087  -0.004806  -0.005413
   32  O  2 XY    0.000081   0.000000   0.000000   0.000000   0.000000
   33  O  2 XZ    0.000000   0.000058   0.000802  -0.000277  -0.002140
   34  O  2 YZ   -0.000015   0.000000   0.000000   0.000000   0.000000
   35  O  3  S    0.000000  -0.000030  -0.127850   0.148137   0.102903
   36  O  3  S    0.000000  -0.000067   0.258728  -0.294065  -0.212445
   37  O  3  S    0.000000   0.000290   0.294522  -0.378812  -0.342584
   38  O  3  X    0.000000  -0.000070  -0.092820   0.087264  -0.152536
   39  O  3  Y    0.000019   0.000000   0.000000   0.000000   0.000000
   40  O  3  Z    0.000000   0.000013  -0.005339   0.005246  -0.009231
   41  O  3  X    0.000000  -0.000183  -0.035093   0.045775  -0.070104
   42  O  3  Y   -0.000012   0.000000   0.000000   0.000000   0.000000
   43  O  3  Z    0.000000  -0.000031  -0.000860   0.003696  -0.002648
   44  O  3 XX    0.000000   0.000127   0.007623  -0.009149   0.011319
   45  O  3 YY    0.000000  -0.000052  -0.003536   0.004343  -0.005906
   46  O  3 ZZ    0.000000  -0.000075  -0.004087   0.004806  -0.005413
   47  O  3 XY   -0.000081   0.000000   0.000000   0.000000   0.000000
   48  O  3 XZ    0.000000  -0.000058  -0.000802  -0.000277   0.002140
   49  O  3 YZ   -0.000015   0.000000   0.000000   0.000000   0.000000

                     11         12         13         14         15
                   -0.4425    -0.4093    -0.4079    -0.3297    -0.3281
                     B1         B2         A1         A2         B1  
    1  S  1  S    0.000000   0.000000  -0.004419   0.000000   0.000000
    2  S  1  S    0.000000   0.000000   0.013873   0.000000   0.000000
    3  S  1  S    0.000000   0.000000  -0.026206   0.000000   0.000000
    4  S  1  S    0.000000   0.000000  -0.042569   0.000000   0.000000
    5  S  1  X   -0.171969   0.000000   0.000000   0.000000  -0.009960
    6  S  1  Y    0.000000  -0.200991   0.000000   0.000000   0.000000
    7  S  1  Z    0.000000   0.000000  -0.200297   0.000000   0.000000
    8  S  1  X    0.404826   0.000000   0.000000   0.000000   0.022881
    9  S  1  Y    0.000000   0.469465   0.000000   0.000000   0.000000
   10  S  1  Z    0.000000   0.000000   0.467493   0.000000   0.000000
   11  S  1  X    0.016533   0.000000   0.000000   0.000000   0.020812
   12  S  1  Y    0.000000   0.281559   0.000000   0.000000   0.000000
   13  S  1  Z    0.000000   0.000000   0.280313   0.000000   0.000000
   14  S  1 XX    0.000000   0.000000  -0.011091   0.000000   0.000000
   15  S  1 YY    0.000000   0.000000  -0.007124   0.000000   0.000000
   16  S  1 ZZ    0.000000   0.000000   0.018215   0.000000   0.000000
   17  S  1 XY    0.000000   0.000000   0.000000  -0.112211   0.000000
   18  S  1 XZ    0.014935   0.000000   0.000000   0.000000  -0.111188
   19  S  1 YZ    0.000000   0.014591   0.000000   0.000000   0.000000
   20  O  2  S   -0.061293   0.000000   0.001986   0.000000  -0.001194
   21  O  2  S    0.134852   0.000000  -0.004005   0.000000   0.001810
   22  O  2  S    0.193043   0.000000  -0.009160   0.000000   0.011028
   23  O  2  X   -0.372902   0.000000   0.047493   0.000000   0.045152
   24  O  2  Y    0.000000   0.307759   0.000000   0.463648   0.000000
   25  O  2  Z    0.026733   0.000000   0.304182   0.000000   0.461128
   26  O  2  X   -0.230106   0.000000   0.031349   0.000000   0.033420
   27  O  2  Y    0.000000   0.187631   0.000000   0.330462   0.000000
   28  O  2  Z    0.018553   0.000000   0.185665   0.000000   0.328597
   29  O  2 XX   -0.015886   0.000000   0.004044   0.000000   0.001204
   30  O  2 YY    0.008175   0.000000  -0.001036   0.000000   0.000356
   31  O  2 ZZ    0.007711   0.000000  -0.003008   0.000000  -0.001560
   32  O  2 XY    0.000000   0.018597   0.000000   0.016485   0.000000
   33  O  2 XZ    0.003133   0.000000   0.018116   0.000000   0.016523
   34  O  2 YZ    0.000000  -0.001164   0.000000  -0.001098   0.000000
   35  O  3  S    0.061293   0.000000   0.001986   0.000000   0.001194
   36  O  3  S   -0.134852   0.000000  -0.004005   0.000000  -0.001810
   37  O  3  S   -0.193043   0.000000  -0.009160   0.000000  -0.011028
   38  O  3  X   -0.372902   0.000000  -0.047493   0.000000   0.045152
   39  O  3  Y    0.000000   0.307759   0.000000  -0.463648   0.000000
   40  O  3  Z   -0.026733   0.000000   0.304182   0.000000  -0.461128
   41  O  3  X   -0.230106   0.000000  -0.031349   0.000000   0.033420
   42  O  3  Y    0.000000   0.187631   0.000000  -0.330462   0.000000
   43  O  3  Z   -0.018553   0.000000   0.185665   0.000000  -0.328597
   44  O  3 XX    0.015886   0.000000   0.004044   0.000000  -0.001204
   45  O  3 YY   -0.008175   0.000000  -0.001036   0.000000  -0.000356
   46  O  3 ZZ   -0.007711   0.000000  -0.003008   0.000000   0.001560
   47  O  3 XY    0.000000  -0.018597   0.000000   0.016485   0.000000
   48  O  3 XZ    0.003133   0.000000  -0.018116   0.000000   0.016523
   49  O  3 YZ    0.000000  -0.001164   0.000000   0.001098   0.000000

                     16         17         18         19         20
                   -0.2408    -0.1915    -0.1860     0.1387     0.3689
                     A1         B2         A1         B1         A1  
    1  S  1  S    0.030672   0.000000   0.007806   0.000000  -0.039793
    2  S  1  S   -0.131642   0.000000  -0.032033   0.000000  -0.149998
    3  S  1  S    0.142959   0.000000   0.039541   0.000000  -0.620804
    4  S  1  S    0.667677   0.000000   0.184198   0.000000   0.835326
    5  S  1  X    0.000000   0.000000   0.000000  -0.192995   0.000000
    6  S  1  Y    0.000000  -0.210797   0.000000   0.000000   0.000000
    7  S  1  Z    0.043547   0.000000  -0.206410   0.000000   0.274041
    8  S  1  X    0.000000   0.000000   0.000000   0.511948   0.000000
    9  S  1  Y    0.000000   0.530165   0.000000   0.000000   0.000000
   10  S  1  Z   -0.105933   0.000000   0.520329   0.000000  -1.062932
   11  S  1  X    0.000000   0.000000   0.000000   1.527876   0.000000
   12  S  1  Y    0.000000   0.430501   0.000000   0.000000   0.000000
   13  S  1  Z   -0.055309   0.000000   0.432312   0.000000   1.201313
   14  S  1 XX   -0.195467   0.000000  -0.054047   0.000000   0.009141
   15  S  1 YY    0.098846   0.000000   0.027376   0.000000   0.049911
   16  S  1 ZZ    0.096621   0.000000   0.026671   0.000000  -0.059053
   17  S  1 XY    0.000000   0.000000   0.000000   0.000000   0.000000
   18  S  1 XZ    0.000000   0.000000   0.000000  -0.062562   0.000000
   19  S  1 YZ    0.000000   0.000004   0.000000   0.000000   0.000000
   20  O  2  S    0.012678   0.000000   0.008213  -0.082082   0.007543
   21  O  2  S   -0.034507   0.000000  -0.018388   0.146528  -0.006025
   22  O  2  S   -0.097405   0.000000  -0.058535   0.839721  -0.167300
   23  O  2  X   -0.425355   0.000000  -0.150560   0.260831   0.063235
   24  O  2  Y    0.000000  -0.394139   0.000000   0.000000   0.000000
   25  O  2  Z    0.144681   0.000000  -0.367703  -0.075082  -0.099686
   26  O  2  X   -0.313270   0.000000  -0.120018   0.475701  -0.102182
   27  O  2  Y    0.000000  -0.312612   0.000000   0.000000   0.000000
   28  O  2  Z    0.107764   0.000000  -0.292803  -0.076780  -0.089676
   29  O  2 XX   -0.003387   0.000000  -0.000295   0.006972  -0.027805
   30  O  2 YY    0.001733   0.000000   0.000368  -0.002989   0.013988
   31  O  2 ZZ    0.001654   0.000000  -0.000073  -0.003983   0.013817
   32  O  2 XY    0.000000   0.000394   0.000000   0.000000   0.000000
   33  O  2 XZ    0.001477   0.000000   0.000743   0.003919  -0.014038
   34  O  2 YZ    0.000000  -0.000240   0.000000   0.000000   0.000000
   35  O  3  S    0.012678   0.000000   0.008213   0.082082   0.007543
   36  O  3  S   -0.034507   0.000000  -0.018388  -0.146528  -0.006025
   37  O  3  S   -0.097405   0.000000  -0.058535  -0.839721  -0.167300
   38  O  3  X    0.425355   0.000000   0.150560   0.260831  -0.063235
   39  O  3  Y    0.000000  -0.394139   0.000000   0.000000   0.000000
   40  O  3  Z    0.144681   0.000000  -0.367703   0.075082  -0.099686
   41  O  3  X    0.313270   0.000000   0.120018   0.475701   0.102182
   42  O  3  Y    0.000000  -0.312612   0.000000   0.000000   0.000000
   43  O  3  Z    0.107764   0.000000  -0.292803   0.076780  -0.089676
   44  O  3 XX   -0.003387   0.000000  -0.000295  -0.006972  -0.027805
   45  O  3 YY    0.001733   0.000000   0.000368   0.002989   0.013988
   46  O  3 ZZ    0.001654   0.000000  -0.000073   0.003983   0.013817
   47  O  3 XY    0.000000  -0.000394   0.000000   0.000000   0.000000
   48  O  3 XZ   -0.001477   0.000000  -0.000743   0.003919   0.014038
   49  O  3 YZ    0.000000  -0.000240   0.000000   0.000000   0.000000

                     21         22         23         24         25
                    0.3709     0.3734     0.3910     0.5075     0.5075
                     B2         B1         A1         B2         A1  
    1  S  1  S    0.000000   0.000000  -0.109623   0.000000   0.000436
    2  S  1  S    0.000000   0.000000  -0.376662   0.000000  -0.000030
    3  S  1  S    0.000000   0.000000  -1.665364   0.000000   0.004699
    4  S  1  S    0.000000   0.000000   2.034068   0.000000   0.002464
    5  S  1  X    0.000000   0.304846   0.000000   0.000000   0.000000
    6  S  1  Y    0.293262   0.000000   0.000000   0.022430   0.000000
    7  S  1  Z    0.000000   0.000000  -0.102927   0.000000   0.022628
    8  S  1  X    0.000000  -1.123546   0.000000   0.000000   0.000000
    9  S  1  Y   -1.138613   0.000000   0.000000  -0.084181   0.000000
   10  S  1  Z    0.000000   0.000000   0.401559   0.000000  -0.084913
   11  S  1  X    0.000000   1.555327   0.000000   0.000000   0.000000
   12  S  1  Y    1.265333   0.000000   0.000000   0.068771   0.000000
   13  S  1  Z    0.000000   0.000000  -0.412022   0.000000   0.070210
   14  S  1 XX    0.000000   0.000000  -0.086539   0.000000  -0.000136
   15  S  1 YY    0.000000   0.000000   0.021848   0.000000  -0.860060
   16  S  1 ZZ    0.000000   0.000000   0.064691   0.000000   0.860197
   17  S  1 XY    0.000000   0.000000   0.000000   0.000000   0.000000
   18  S  1 XZ    0.000000   0.019950   0.000000   0.000000   0.000000
   19  S  1 YZ   -0.066950   0.000000   0.000000   0.993249   0.000000
   20  O  2  S    0.000000  -0.010634   0.011239   0.000000   0.000345
   21  O  2  S    0.000000  -0.040552  -0.018012   0.000000  -0.000641
   22  O  2  S    0.000000   0.569609  -0.264119   0.000000  -0.003972
   23  O  2  X    0.000000  -0.317577   0.142026   0.000000  -0.003607
   24  O  2  Y   -0.094529   0.000000   0.000000  -0.046663   0.000000
   25  O  2  Z    0.000000   0.018739   0.004963   0.000000  -0.046695
   26  O  2  X    0.000000   0.114391  -0.159409   0.000000  -0.002101
   27  O  2  Y   -0.104870   0.000000   0.000000   0.015697   0.000000
   28  O  2  Z    0.000000  -0.017605   0.050630   0.000000   0.015862
   29  O  2 XX    0.000000   0.052558  -0.051100   0.000000   0.000576
   30  O  2 YY    0.000000  -0.026803   0.026031   0.000000  -0.023839
   31  O  2 ZZ    0.000000  -0.025754   0.025069   0.000000   0.023263
   32  O  2 XY   -0.019837   0.000000   0.000000   0.007086   0.000000
   33  O  2 XZ    0.000000  -0.009789   0.016491   0.000000   0.007049
   34  O  2 YZ    0.000151   0.000000   0.000000   0.027193   0.000000
   35  O  3  S    0.000000   0.010634   0.011239   0.000000   0.000345
   36  O  3  S    0.000000   0.040552  -0.018012   0.000000  -0.000641
   37  O  3  S    0.000000  -0.569609  -0.264119   0.000000  -0.003972
   38  O  3  X    0.000000  -0.317577  -0.142026   0.000000   0.003607
   39  O  3  Y   -0.094529   0.000000   0.000000  -0.046663   0.000000
   40  O  3  Z    0.000000  -0.018739   0.004963   0.000000  -0.046695
   41  O  3  X    0.000000   0.114391   0.159409   0.000000   0.002101
   42  O  3  Y   -0.104870   0.000000   0.000000   0.015697   0.000000
   43  O  3  Z    0.000000   0.017605   0.050630   0.000000   0.015862
   44  O  3 XX    0.000000  -0.052558  -0.051100   0.000000   0.000576
   45  O  3 YY    0.000000   0.026803   0.026031   0.000000  -0.023839
   46  O  3 ZZ    0.000000   0.025754   0.025069   0.000000   0.023263
   47  O  3 XY    0.019837   0.000000   0.000000  -0.007086   0.000000
   48  O  3 XZ    0.000000  -0.009789  -0.016491   0.000000  -0.007049
   49  O  3 YZ    0.000151   0.000000   0.000000   0.027193   0.000000

                     26         27         28         29         30
                    0.5118     0.5229     0.6919     0.7677     0.7861
                     A2         B1         A1         B1         A2  
    1  S  1  S    0.000000   0.000000   0.010114   0.000000   0.000000
    2  S  1  S    0.000000   0.000000  -0.037539   0.000000   0.000000
    3  S  1  S    0.000000   0.000000   0.079799   0.000000   0.000000
    4  S  1  S    0.000000   0.000000   1.128138   0.000000   0.000000
    5  S  1  X    0.000000  -0.025259   0.000000  -0.070195   0.000000
    6  S  1  Y    0.000000   0.000000   0.000000   0.000000   0.000000
    7  S  1  Z    0.000000   0.000000  -0.016565   0.000000   0.000000
    8  S  1  X    0.000000   0.094329   0.000000   0.491403   0.000000
    9  S  1  Y    0.000000   0.000000   0.000000   0.000000   0.000000
   10  S  1  Z    0.000000   0.000000   0.080378   0.000000   0.000000
   11  S  1  X    0.000000   0.246385   0.000000  -0.060704   0.000000
   12  S  1  Y    0.000000   0.000000   0.000000   0.000000   0.000000
   13  S  1  Z    0.000000   0.000000   0.036648   0.000000   0.000000
   14  S  1 XX    0.000000   0.000000   0.695311   0.000000   0.000000
   15  S  1 YY    0.000000   0.000000  -0.351745   0.000000   0.000000
   16  S  1 ZZ    0.000000   0.000000  -0.343567   0.000000   0.000000
   17  S  1 XY    0.826328   0.000000   0.000000   0.000000   0.581224
   18  S  1 XZ    0.000000   0.825856   0.000000   0.287309   0.000000
   19  S  1 YZ    0.000000   0.000000   0.000000   0.000000   0.000000
   20  O  2  S    0.000000  -0.018624   0.059492  -0.020855   0.000000
   21  O  2  S    0.000000   0.063135  -0.216805   0.090886   0.000000
   22  O  2  S    0.000000   0.133840  -0.312075   0.025762   0.000000
   23  O  2  X    0.000000   0.046222   0.360680  -0.489805   0.000000
   24  O  2  Y    0.390290   0.000000   0.000000   0.000000  -0.525950
   25  O  2  Z    0.000000   0.383458  -0.004926  -0.277593   0.000000
   26  O  2  X    0.000000   0.133962  -1.054149   0.811065   0.000000
   27  O  2  Y   -0.170939   0.000000   0.000000   0.000000   0.761379
   28  O  2  Z    0.000000  -0.191740   0.071466   0.370624   0.000000
   29  O  2 XX    0.000000  -0.009909   0.016573  -0.051180   0.000000
   30  O  2 YY    0.000000  -0.001364  -0.009070   0.023100   0.000000
   31  O  2 ZZ    0.000000   0.011273  -0.007503   0.028080   0.000000
   32  O  2 XY   -0.064924   0.000000   0.000000   0.000000  -0.071010
   33  O  2 XZ    0.000000  -0.063605  -0.007378  -0.023002   0.000000
   34  O  2 YZ    0.007381   0.000000   0.000000   0.000000   0.007670
   35  O  3  S    0.000000   0.018624   0.059492   0.020855   0.000000
   36  O  3  S    0.000000  -0.063135  -0.216805  -0.090886   0.000000
   37  O  3  S    0.000000  -0.133840  -0.312075  -0.025762   0.000000
   38  O  3  X    0.000000   0.046222  -0.360680  -0.489805   0.000000
   39  O  3  Y   -0.390290   0.000000   0.000000   0.000000   0.525950
   40  O  3  Z    0.000000  -0.383458  -0.004926   0.277593   0.000000
   41  O  3  X    0.000000   0.133962   1.054149   0.811065   0.000000
   42  O  3  Y    0.170939   0.000000   0.000000   0.000000  -0.761379
   43  O  3  Z    0.000000   0.191740   0.071466  -0.370624   0.000000
   44  O  3 XX    0.000000   0.009909   0.016573   0.051180   0.000000
   45  O  3 YY    0.000000   0.001364  -0.009070  -0.023100   0.000000
   46  O  3 ZZ    0.000000  -0.011273  -0.007503  -0.028080   0.000000
   47  O  3 XY   -0.064924   0.000000   0.000000   0.000000  -0.071010
   48  O  3 XZ    0.000000  -0.063605   0.007378  -0.023002   0.000000
   49  O  3 YZ   -0.007381   0.000000   0.000000   0.000000  -0.007670

                     31         32         33         34         35
                    0.7972     0.8347     0.8349     1.0545     1.4627
                     B1         A1         B2         A1         A1  
    1  S  1  S    0.000000   0.003157   0.000000  -0.031683   0.013758
    2  S  1  S    0.000000   0.017060   0.000000  -0.228764   0.174025
    3  S  1  S    0.000000   0.057650   0.000000  -0.649335   0.350163
    4  S  1  S    0.000000  -0.039340   0.000000   0.844292  -1.600851
    5  S  1  X    0.037041   0.000000   0.000000   0.000000   0.000000
    6  S  1  Y    0.000000   0.000000  -0.022168   0.000000   0.000000
    7  S  1  Z    0.000000  -0.022189   0.000000  -0.009659   0.003756
    8  S  1  X   -0.292497   0.000000   0.000000   0.000000   0.000000
    9  S  1  Y    0.000000   0.000000   0.109738   0.000000   0.000000
   10  S  1  Z    0.000000   0.111343   0.000000   0.021814  -0.026494
   11  S  1  X    0.044334   0.000000   0.000000   0.000000   0.000000
   12  S  1  Y    0.000000   0.000000  -0.637858   0.000000   0.000000
   13  S  1  Z    0.000000  -0.636206   0.000000   0.000451  -0.130354
   14  S  1 XX    0.000000   0.018332   0.000000   0.949542  -0.402811
   15  S  1 YY    0.000000   0.046834   0.000000  -0.477798   0.206320
   16  S  1 ZZ    0.000000  -0.065166   0.000000  -0.471745   0.196491
   17  S  1 XY    0.000000   0.000000   0.000000   0.000000   0.000000
   18  S  1 XZ    0.510448   0.000000   0.000000   0.000000   0.000000
   19  S  1 YZ    0.000000   0.000000  -0.064626   0.000000   0.000000
   20  O  2  S    0.010278  -0.002480   0.000000   0.037155   0.012000
   21  O  2  S   -0.075047   0.034514   0.000000  -0.128900  -1.149226
   22  O  2  S    0.038211  -0.008159   0.000000  -0.269833   1.615493
   23  O  2  X    0.309433  -0.026671   0.000000  -0.545219  -0.054673
   24  O  2  Y    0.000000   0.000000  -0.632169   0.000000   0.000000
   25  O  2  Z   -0.447411  -0.630984   0.000000   0.036376  -0.023072
   26  O  2  X   -0.440633   0.041030   0.000000   0.208335   0.602750
   27  O  2  Y    0.000000   0.000000   0.904977   0.000000   0.000000
   28  O  2  Z    0.660262   0.902088   0.000000   0.029484   0.006560
   29  O  2 XX    0.018878   0.001513   0.000000   0.014075  -0.165789
   30  O  2 YY   -0.015697  -0.000232   0.000000  -0.009657   0.084601
   31  O  2 ZZ   -0.003181  -0.001281   0.000000  -0.004417   0.081188
   32  O  2 XY    0.000000   0.000000  -0.025521   0.000000   0.000000
   33  O  2 XZ   -0.068454  -0.025914   0.000000  -0.029100   0.021143
   34  O  2 YZ    0.000000   0.000000  -0.000630   0.000000   0.000000
   35  O  3  S   -0.010278  -0.002480   0.000000   0.037155   0.012000
   36  O  3  S    0.075047   0.034514   0.000000  -0.128900  -1.149226
   37  O  3  S   -0.038211  -0.008159   0.000000  -0.269833   1.615493
   38  O  3  X    0.309433   0.026671   0.000000   0.545219   0.054673
   39  O  3  Y    0.000000   0.000000  -0.632169   0.000000   0.000000
   40  O  3  Z    0.447411  -0.630984   0.000000   0.036376  -0.023072
   41  O  3  X   -0.440633  -0.041030   0.000000  -0.208335  -0.602750
   42  O  3  Y    0.000000   0.000000   0.904977   0.000000   0.000000
   43  O  3  Z   -0.660262   0.902088   0.000000   0.029484   0.006560
   44  O  3 XX   -0.018878   0.001513   0.000000   0.014075  -0.165789
   45  O  3 YY    0.015697  -0.000232   0.000000  -0.009657   0.084601
   46  O  3 ZZ    0.003181  -0.001281   0.000000  -0.004417   0.081188
   47  O  3 XY    0.000000   0.000000   0.025521   0.000000   0.000000
   48  O  3 XZ   -0.068454   0.025914   0.000000   0.029100  -0.021143
   49  O  3 YZ    0.000000   0.000000  -0.000630   0.000000   0.000000

                     36         37         38         39         40
                    1.8390     2.0619     2.0619     2.0738     2.0739
                     B1         A2         B1         B2         A1  
    1  S  1  S    0.000000   0.000000   0.000000   0.000000   0.000260
    2  S  1  S    0.000000   0.000000   0.000000   0.000000   0.000772
    3  S  1  S    0.000000   0.000000   0.000000   0.000000   0.003982
    4  S  1  S    0.000000   0.000000   0.000000   0.000000  -0.001853
    5  S  1  X   -0.022195   0.000000   0.000099   0.000000   0.000000
    6  S  1  Y    0.000000   0.000000   0.000000  -0.004389   0.000000
    7  S  1  Z    0.000000   0.000000   0.000000   0.000000  -0.002864
    8  S  1  X    0.190422   0.000000  -0.000547   0.000000   0.000000
    9  S  1  Y    0.000000   0.000000   0.000000   0.012940   0.000000
   10  S  1  Z    0.000000   0.000000   0.000000   0.000000   0.008772
   11  S  1  X    1.698747   0.000000   0.001699   0.000000   0.000000
   12  S  1  Y    0.000000   0.000000   0.000000   0.007901   0.000000
   13  S  1  Z    0.000000   0.000000   0.000000   0.000000   0.003329
   14  S  1 XX    0.000000   0.000000   0.000000   0.000000  -0.003177
   15  S  1 YY    0.000000   0.000000   0.000000   0.000000   0.074520
   16  S  1 ZZ    0.000000   0.000000   0.000000   0.000000  -0.071342
   17  S  1 XY    0.000000   0.010359   0.000000   0.000000   0.000000
   18  S  1 XZ    0.071736   0.000000  -0.010393   0.000000   0.000000
   19  S  1 YZ    0.000000   0.000000   0.000000  -0.082596   0.000000
   20  O  2  S   -0.003613   0.000000   0.000083   0.000000  -0.000182
   21  O  2  S   -1.270675   0.000000  -0.001043   0.000000   0.001980
   22  O  2  S    2.187702   0.000000   0.001177   0.000000  -0.000959
   23  O  2  X   -0.065016   0.000000  -0.000192   0.000000   0.001921
   24  O  2  Y    0.000000  -0.001612   0.000000   0.003664   0.000000
   25  O  2  Z    0.032095   0.000000   0.001675   0.000000   0.001548
   26  O  2  X    0.590909   0.000000  -0.000209   0.000000  -0.001788
   27  O  2  Y    0.000000   0.003054   0.000000  -0.005493   0.000000
   28  O  2  Z   -0.111766   0.000000  -0.003113   0.000000  -0.001819
   29  O  2 XX   -0.244380   0.000000  -0.010206   0.000000  -0.006233
   30  O  2 YY    0.122962   0.000000   0.612354   0.000000  -0.609196
   31  O  2 ZZ    0.121417   0.000000  -0.602149   0.000000   0.615428
   32  O  2 XY    0.000000   0.091336   0.000000  -0.007883   0.000000
   33  O  2 XZ    0.036698   0.000000  -0.090807   0.000000   0.019645
   34  O  2 YZ    0.000000   0.701199   0.000000   0.707319   0.000000
   35  O  3  S    0.003613   0.000000  -0.000083   0.000000  -0.000182
   36  O  3  S    1.270675   0.000000   0.001043   0.000000   0.001980
   37  O  3  S   -2.187702   0.000000  -0.001177   0.000000  -0.000959
   38  O  3  X   -0.065016   0.000000  -0.000192   0.000000  -0.001921
   39  O  3  Y    0.000000   0.001612   0.000000   0.003664   0.000000
   40  O  3  Z   -0.032095   0.000000  -0.001675   0.000000   0.001548
   41  O  3  X    0.590909   0.000000  -0.000209   0.000000   0.001788
   42  O  3  Y    0.000000  -0.003054   0.000000  -0.005493   0.000000
   43  O  3  Z    0.111766   0.000000   0.003113   0.000000  -0.001819
   44  O  3 XX    0.244380   0.000000   0.010206   0.000000  -0.006233
   45  O  3 YY   -0.122962   0.000000  -0.612354   0.000000  -0.609196
   46  O  3 ZZ   -0.121417   0.000000   0.602149   0.000000   0.615428
   47  O  3 XY    0.000000   0.091336   0.000000   0.007883   0.000000
   48  O  3 XZ    0.036698   0.000000  -0.090807   0.000000  -0.019645
   49  O  3 YZ    0.000000  -0.701199   0.000000   0.707319   0.000000

                     41         42         43         44         45
                    2.0852     2.0910     2.2749     2.2812     2.5682
                     B2         A1         B1         A2         B1  
    1  S  1  S    0.000000  -0.002829   0.000000   0.000000   0.000000
    2  S  1  S    0.000000  -0.002680   0.000000   0.000000   0.000000
    3  S  1  S    0.000000  -0.036905   0.000000   0.000000   0.000000
    4  S  1  S    0.000000  -0.035298   0.000000   0.000000   0.000000
    5  S  1  X    0.000000   0.000000   0.022516   0.000000  -0.198773
    6  S  1  Y    0.042215   0.000000   0.000000   0.000000   0.000000
    7  S  1  Z    0.000000   0.043024   0.000000   0.000000   0.000000
    8  S  1  X    0.000000   0.000000  -0.105685   0.000000   0.946017
    9  S  1  Y   -0.119335   0.000000   0.000000   0.000000   0.000000
   10  S  1  Z    0.000000  -0.123961   0.000000   0.000000   0.000000
   11  S  1  X    0.000000   0.000000  -0.029489   0.000000   0.501861
   12  S  1  Y   -0.120916   0.000000   0.000000   0.000000   0.000000
   13  S  1  Z    0.000000  -0.123900   0.000000   0.000000   0.000000
   14  S  1 XX    0.000000   0.032654   0.000000   0.000000   0.000000
   15  S  1 YY    0.000000   0.020138   0.000000   0.000000   0.000000
   16  S  1 ZZ    0.000000  -0.052791   0.000000   0.000000   0.000000
   17  S  1 XY    0.000000   0.000000   0.000000   0.442016   0.000000
   18  S  1 XZ    0.000000   0.000000   0.425780   0.000000   0.160255
   19  S  1 YZ   -0.045101   0.000000   0.000000   0.000000   0.000000
   20  O  2  S    0.000000   0.001061  -0.000051   0.000000  -0.017266
   21  O  2  S    0.000000  -0.049865   0.065183   0.000000  -0.609959
   22  O  2  S    0.000000   0.061680  -0.089610   0.000000   1.093666
   23  O  2  X    0.000000  -0.027725   0.023071   0.000000  -0.082848
   24  O  2  Y   -0.052985   0.000000   0.000000  -0.040842   0.000000
   25  O  2  Z    0.000000  -0.051435  -0.042977   0.000000   0.009289
   26  O  2  X    0.000000   0.050856  -0.046862   0.000000   0.601810
   27  O  2  Y    0.098743   0.000000   0.000000   0.133922   0.000000
   28  O  2  Z    0.000000   0.097762   0.135543   0.000000  -0.042484
   29  O  2 XX    0.000000   0.159355   0.035908   0.000000   0.733443
   30  O  2 YY    0.000000  -0.063853   0.062291   0.000000  -0.360988
   31  O  2 ZZ    0.000000  -0.095503  -0.098199   0.000000  -0.372455
   32  O  2 XY    0.714529   0.000000   0.000000   0.723114   0.000000
   33  O  2 XZ    0.000000   0.696092   0.720414   0.000000  -0.026111
   34  O  2 YZ    0.007059   0.000000   0.000000  -0.092957   0.000000
   35  O  3  S    0.000000   0.001061   0.000051   0.000000   0.017266
   36  O  3  S    0.000000  -0.049865  -0.065183   0.000000   0.609959
   37  O  3  S    0.000000   0.061680   0.089610   0.000000  -1.093666
   38  O  3  X    0.000000   0.027725   0.023071   0.000000  -0.082848
   39  O  3  Y   -0.052985   0.000000   0.000000   0.040842   0.000000
   40  O  3  Z    0.000000  -0.051435   0.042977   0.000000  -0.009289
   41  O  3  X    0.000000  -0.050856  -0.046862   0.000000   0.601810
   42  O  3  Y    0.098743   0.000000   0.000000  -0.133922   0.000000
   43  O  3  Z    0.000000   0.097762  -0.135543   0.000000   0.042484
   44  O  3 XX    0.000000   0.159355  -0.035908   0.000000  -0.733443
   45  O  3 YY    0.000000  -0.063853  -0.062291   0.000000   0.360988
   46  O  3 ZZ    0.000000  -0.095503   0.098199   0.000000   0.372455
   47  O  3 XY   -0.714529   0.000000   0.000000   0.723114   0.000000
   48  O  3 XZ    0.000000  -0.696092   0.720414   0.000000  -0.026111
   49  O  3 YZ    0.007059   0.000000   0.000000   0.092957   0.000000

                     46
                    2.7871
                     A1  
    1  S  1  S    0.029684
    2  S  1  S   -0.105516
    3  S  1  S    0.225269
    4  S  1  S    1.233290
    5  S  1  X    0.000000
    6  S  1  Y    0.000000
    7  S  1  Z   -0.018013
    8  S  1  X    0.000000
    9  S  1  Y    0.000000
   10  S  1  Z    0.089150
   11  S  1  X    0.000000
   12  S  1  Y    0.000000
   13  S  1  Z    0.038836
   14  S  1 XX    0.939449
   15  S  1 YY   -0.472648
   16  S  1 ZZ   -0.466801
   17  S  1 XY    0.000000
   18  S  1 XZ    0.000000
   19  S  1 YZ    0.000000
   20  O  2  S    0.031590
   21  O  2  S    0.529663
   22  O  2  S   -1.124947
   23  O  2  X   -0.028896
   24  O  2  Y    0.000000
   25  O  2  Z    0.004498
   26  O  2  X   -0.699779
   27  O  2  Y    0.000000
   28  O  2  Z    0.068996
   29  O  2 XX   -0.803469
   30  O  2 YY    0.411865
   31  O  2 ZZ    0.391604
   32  O  2 XY    0.000000
   33  O  2 XZ    0.182257
   34  O  2 YZ    0.000000
   35  O  3  S    0.031590
   36  O  3  S    0.529663
   37  O  3  S   -1.124947
   38  O  3  X    0.028896
   39  O  3  Y    0.000000
   40  O  3  Z    0.004498
   41  O  3  X    0.699779
   42  O  3  Y    0.000000
   43  O  3  Z    0.068996
   44  O  3 XX   -0.803469
   45  O  3 YY    0.411865
   46  O  3 ZZ    0.391604
   47  O  3 XY    0.000000
   48  O  3 XZ   -0.182257
   49  O  3 YZ    0.000000
 ...... END OF RHF CALCULATION ......
 STEP CPU TIME =     4.29 TOTAL CPU TIME =        4.5 (    0.1 MIN)
 TOTAL WALL CLOCK TIME=        4.5 SECONDS, CPU UTILIZATION IS 100.00%

     ---------------------------------------------------------------------
     PROPERTIES FOR THE PBE      DFT FUNCTIONAL (RHF  TYPE) DENSITY MATRIX
     ---------------------------------------------------------------------

          -----------------
          ENERGY COMPONENTS
          -----------------

         WAVEFUNCTION NORMALIZATION =       1.0000000000

                ONE ELECTRON ENERGY =    -944.9433093600
                TWO ELECTRON ENERGY =     301.4760691555
           NUCLEAR REPULSION ENERGY =      95.2923322857
                                      ------------------
                       TOTAL ENERGY =    -548.1749079188

 ELECTRON-ELECTRON POTENTIAL ENERGY =     301.4760691555
  NUCLEUS-ELECTRON POTENTIAL ENERGY =   -1492.1061407889
   NUCLEUS-NUCLEUS POTENTIAL ENERGY =      95.2923322857
                                      ------------------
             TOTAL POTENTIAL ENERGY =   -1095.3377393477
               TOTAL KINETIC ENERGY =     547.1628314289
                 VIRIAL RATIO (V/T) =       2.0018496806

          ---------------------------------------
          MULLIKEN AND LOWDIN POPULATION ANALYSES
          ---------------------------------------

     ATOMIC MULLIKEN POPULATION IN EACH MOLECULAR ORBITAL

                      1          2          3          4          5

                  2.000000   2.000000   2.000000   2.000000   2.000000

    1             2.000014   0.001893   0.000623   2.001068   1.999672
    2            -0.000007   0.999054   0.999689  -0.000534   0.000164
    3            -0.000007   0.999054   0.999689  -0.000534   0.000164

                      6          7          8          9         10

                  2.000000   2.000000   2.000000   2.000000   2.000000

    1             2.000000   1.999992   0.637782   0.246518   1.007027
    2             0.000000   0.000004   0.681109   0.876741   0.496486
    3             0.000000   0.000004   0.681109   0.876741   0.496486

                     11         12         13         14         15

                  2.000000   2.000000   2.000000   2.000000   2.000000

    1             0.427530   1.053596   1.052688   0.078751   0.081041
    2             0.786235   0.473202   0.473656   0.960625   0.959480
    3             0.786235   0.473202   0.473656   0.960625   0.959480

                     16

                  2.000000

    1             0.683617
    2             0.658191
    3             0.658191

               ----- POPULATIONS IN EACH AO -----
                             MULLIKEN      LOWDIN
              1  S  1  S      2.00021     1.99604
              2  S  1  S      2.01074     1.97344
              3  S  1  S      1.00729     0.64152
              4  S  1  S      1.01740     0.60126
              5  S  1  X      1.99677     1.95315
              6  S  1  Y      1.99632     1.95410
              7  S  1  Z      1.99643     1.95511
              8  S  1  X      0.65793     0.59442
              9  S  1  Y      0.62996     0.60364
             10  S  1  Z      0.65518     0.62936
             11  S  1  X      0.02180     0.25813
             12  S  1  Y      0.42651     0.47729
             13  S  1  Z      0.43016     0.48370
             14  S  1 XX      0.06657     0.33649
             15  S  1 YY      0.19884     0.33470
             16  S  1 ZZ      0.07875     0.33237
             17  S  1 XY      0.08015     0.09444
             18  S  1 XZ      0.00080     0.09635
             19  S  1 YZ      0.00000     0.00075
             20  O  2  S      1.99811     1.98087
             21  O  2  S      0.85037     0.66813
             22  O  2  S      1.07346     0.57587
             23  O  2  X      1.01005     0.97910
             24  O  2  Y      0.85137     0.81541
             25  O  2  Z      0.89558     0.86045
             26  O  2  X      0.49423     0.58013
             27  O  2  Y      0.57829     0.61440
             28  O  2  Z      0.59782     0.63298
             29  O  2 XX      0.00166     0.20963
             30  O  2 YY      0.00486     0.20780
             31  O  2 ZZ      0.00415     0.20682
             32  O  2 XY      0.00413     0.00506
             33  O  2 XZ      0.00002     0.00518
             34  O  2 YZ      0.00000     0.00003
             35  O  3  S      1.99811     1.98087
             36  O  3  S      0.85037     0.66813
             37  O  3  S      1.07346     0.57587
             38  O  3  X      1.01005     0.97910
             39  O  3  Y      0.85137     0.81541
             40  O  3  Z      0.89558     0.86045
             41  O  3  X      0.49423     0.58013
             42  O  3  Y      0.57829     0.61440
             43  O  3  Z      0.59782     0.63298
             44  O  3 XX      0.00166     0.20963
             45  O  3 YY      0.00486     0.20780
             46  O  3 ZZ      0.00415     0.20682
             47  O  3 XY      0.00413     0.00506
             48  O  3 XZ      0.00002     0.00518
             49  O  3 YZ      0.00000     0.00003

          ----- MULLIKEN ATOMIC OVERLAP POPULATIONS -----
          (OFF-DIAGONAL ELEMENTS NEED TO BE MULTIPLIED BY 2)

             1           2           3

    1   15.0338368
    2    0.1189871   8.2338600
    3    0.1189871   0.0112475   8.2338600

          TOTAL MULLIKEN AND LOWDIN ATOMIC POPULATIONS
       ATOM         MULL.POP.    CHARGE          LOW.POP.     CHARGE
    1 S            15.271811    0.728189        15.316259    0.683741
    2 O             8.364095   -0.364095         8.341871   -0.341871
    3 O             8.364095   -0.364095         8.341871   -0.341871

          MULLIKEN SPHERICAL HARMONIC POPULATIONS
       ATOM           S       P       D      F      G      H      I    TOTAL
    1 S             6.04    8.81    0.43   0.00   0.00   0.00   0.00   15.27
    2 O             3.92    4.43    0.01   0.00   0.00   0.00   0.00    8.36
    3 O             3.92    4.43    0.01   0.00   0.00   0.00   0.00    8.36

          -------------------------------
          BOND ORDER AND VALENCE ANALYSIS     BOND ORDER THRESHOLD=0.050
          -------------------------------

                   BOND                       BOND                       BOND
  ATOM PAIR DIST  ORDER      ATOM PAIR DIST  ORDER      ATOM PAIR DIST  ORDER
    1   2  1.600  1.730        1   3  1.600  1.730        2   3  3.188  0.487

                       TOTAL       BONDED        FREE
      ATOM            VALENCE     VALENCE     VALENCE
    1 S                 3.461       3.461       0.000
    2 O                 2.218       2.218       0.000
    3 O                 2.218       2.218       0.000

          ---------------------
          ELECTROSTATIC MOMENTS
          ---------------------

 POINT   1           X           Y           Z (BOHR)    CHARGE
                 0.000000    0.000000    0.000000        0.00 (A.U.)
         DX          DY          DZ         /D/  (DEBYE)
     0.000000    0.000000   -0.096307    0.096307
 ...... END OF PROPERTY EVALUATION ......
 STEP CPU TIME =     0.00 TOTAL CPU TIME =        4.5 (    0.1 MIN)
 TOTAL WALL CLOCK TIME=        4.5 SECONDS, CPU UTILIZATION IS  99.78%
               580000  WORDS OF DYNAMIC MEMORY USED
 EXECUTION OF GAMESS TERMINATED NORMALLY Thu Feb 26 00:18:48 2015
 DDI: 263624 bytes (0.3 MB / 0 MWords) used by master data server.

 ----------------------------------------
 CPU timing information for all processes
 ========================================
 0: 4.435 + 0.36 = 4.472
 ----------------------------------------
 ddikick.x: exited gracefully.
----- accounting info -----
Files used on the master node dftfe.crc.nd.edu were:
-rw-r--r-- 1 pmehta1 campus   37475 Feb 26 00:18 /tmp/gamess.dat
-rw-r--r-- 1 pmehta1 campus     142 Feb 26 00:18 /tmp/gamess.F05
-rw-r--r-- 1 pmehta1 campus 1980264 Feb 26 00:18 /tmp/gamess.F08
-rw-r--r-- 1 pmehta1 campus 1220440 Feb 26 00:18 /tmp/gamess.F10
Thu Feb 26 00:18:51 EST 2015
0.231u 0.194s 0:07.91 5.3%	0+0k 0+112io 0pf+0w
