----- GAMESS execution script 'rungms' -----
This job is running on host dftfe.crc.nd.edu
under operating system Linux at Thu Feb 26 00:23:16 EST 2015
Available scratch disk space (Kbyte units) at beginning of the job is
Filesystem     1K-blocks     Used Available Use% Mounted on
/dev/sda2      147771864 22819280 117446152  17% /
GAMESS temporary binary files will be written to /tmp
GAMESS supplementary output files will be written to /tmp
Copying input file gamess.inp to your run's scratch directory...

 Distributed Data Interface kickoff program.
 Initiating 1 compute processes on 1 nodes to run the following command:
 /opt/crc/gamess/2012R1/gamess/gamess.00.x gamess 

          ******************************************************
          *         GAMESS VERSION =  1 MAY 2012 (R1)          *
          *             FROM IOWA STATE UNIVERSITY             *
          * M.W.SCHMIDT, K.K.BALDRIDGE, J.A.BOATZ, S.T.ELBERT, *
          *   M.S.GORDON, J.H.JENSEN, S.KOSEKI, N.MATSUNAGA,   *
          *          K.A.NGUYEN, S.J.SU, T.L.WINDUS,           *
          *       TOGETHER WITH M.DUPUIS, J.A.MONTGOMERY       *
          *         J.COMPUT.CHEM.  14, 1347-1363(1993)        *
          **************** 64 BIT LINUX VERSION ****************

  SINCE 1993, STUDENTS AND POSTDOCS WORKING AT IOWA STATE UNIVERSITY
  AND ALSO IN THEIR VARIOUS JOBS AFTER LEAVING ISU HAVE MADE IMPORTANT
  CONTRIBUTIONS TO THE CODE:
     IVANA ADAMOVIC, CHRISTINE AIKENS, YURI ALEXEEV, POOJA ARORA,
     ANDREY ASADCHEV, ROB BELL, PRADIPTA BANDYOPADHYAY, JONATHAN BENTZ,
     BRETT BODE, GALINA CHABAN, WEI CHEN, CHEOL HO CHOI, PAUL DAY,
     ALBERT DEFUSCO, TIM DUDLEY, DMITRI FEDOROV, GRAHAM FLETCHER,
     MARK FREITAG, KURT GLAESEMANN, DAN KEMP, GRANT MERRILL,
     NORIYUKI MINEZAWA, JONATHAN MULLIN, TAKESHI NAGATA,
     SEAN NEDD, HEATHER NETZLOFF, BOSILJKA NJEGIC, RYAN OLSON, MIKE PAK,
     JIM SHOEMAKER, LYUDMILA SLIPCHENKO, SAROM SOK, JIE SONG,
     TETSUYA TAKETSUGU, SIMON WEBB, SOOHAENG YOO, FEDERICO ZAHARIEV

  ADDITIONAL CODE HAS BEEN PROVIDED BY COLLABORATORS IN OTHER GROUPS:
     IOWA STATE UNIVERSITY:
          JOE IVANIC, LAIMUTIS BYTAUTAS, KLAUS RUEDENBERG
     UNIVERSITY OF TOKYO: KIMIHIKO HIRAO, TAKAHITO NAKAJIMA,
          TAKAO TSUNEDA, MUNEAKI KAMIYA, SUSUMU YANAGISAWA,
          KIYOSHI YAGI, MAHITO CHIBA, SEIKEN TOKURA, NAOAKI KAWAKAMI
     UNIVERSITY OF AARHUS: FRANK JENSEN
     UNIVERSITY OF IOWA: VISVALDAS KAIRYS, HUI LI
     NATIONAL INST. OF STANDARDS AND TECHNOLOGY: WALT STEVENS, DAVID GARMER
     UNIVERSITY OF PISA: BENEDETTA MENNUCCI, JACOPO TOMASI
     UNIVERSITY OF MEMPHIS: HENRY KURTZ, PRAKASHAN KORAMBATH
     UNIVERSITY OF ALBERTA: TOBY ZENG, MARIUSZ KLOBUKOWSKI
     UNIVERSITY OF NEW ENGLAND: MARK SPACKMAN
     MIE UNIVERSITY: HIROAKI UMEDA
     MICHIGAN STATE UNIVERSITY:
          KAROL KOWALSKI, MARTA WLOCH, JEFFREY GOUR, JESSE LUTZ, PIOTR PIECUCH
     UNIVERSITY OF SILESIA: MONIKA MUSIAL, STANISLAW KUCHARSKI
     FACULTES UNIVERSITAIRES NOTRE-DAME DE LA PAIX:
          OLIVIER QUINET, BENOIT CHAMPAGNE
     UNIVERSITY OF CALIFORNIA - SANTA BARBARA: BERNARD KIRTMAN
     INSTITUTE FOR MOLECULAR SCIENCE:
          KAZUYA ISHIMURA, MICHIO KATOUDA, AND SHIGERU NAGASE
     UNIVERSITY OF NOTRE DAME: DAN CHIPMAN
     KYUSHU UNIVERSITY:
          HARUYUKI NAKANO,
          FENG LONG GU, JACEK KORCHOWIEC, MARCIN MAKOWSKI, AND YURIKO AOKI,
          HIROTOSHI MORI AND EISAKU MIYOSHI
     PENNSYLVANIA STATE UNIVERSITY:
          TZVETELIN IORDANOV, CHET SWALINA, JONATHAN SKONE,
          SHARON HAMMES-SCHIFFER
     WASEDA UNIVERSITY:
          MASATO KOBAYASHI, TOMOKO AKAMA, TSUGUKI TOUMA,
          TAKESHI YOSHIKAWA, YASUHIRO IKABATA, HIROMI NAKAI
     UNIVERSITY OF NEBRASKA:
          PEIFENG SU, DEJUN SI, NANDUN THELLAMUREGE, YALI WANG, HUI LI
     UNIVERSITY OF ZURICH:
          ROBERTO PEVERATI, KIM BALDRIDGE
     N. COPERNICUS UNIVERSITY AND JACKSON STATE UNIVERSITY:
          MARIA BARYSZ

 EXECUTION OF GAMESS BEGUN Thu Feb 26 00:23:16 2015

            ECHO OF THE FIRST FEW INPUT CARDS -
 INPUT CARD> $BASIS GBASIS=PC1 $END                                                         
 INPUT CARD> $CONTRL COORD=ZMT ISPHER=1 RUNTYP=ENERGY DFTTYP=PBE $END                       
 INPUT CARD>                                                                                
 INPUT CARD> $DATA                                                                          
 INPUT CARD>Title                                                                           
 INPUT CARD>Cnv 2                                                                           
 INPUT CARD>                                                                                
 INPUT CARD>S                                                                               
 INPUT CARD>O 1 2.00                                                                        
 INPUT CARD>O 1 2.00 2 170.0                                                                
 INPUT CARD> $END                                                                           
    1000000 WORDS OF MEMORY AVAILABLE

     BASIS OPTIONS
     -------------
     GBASIS=PC1          IGAUSS=       0      POLAR=NONE    
     NDFUNC=       0     NFFUNC=       0     DIFFSP=       F
     NPFUNC=       0      DIFFS=       F     BASNAM=        


     RUN TITLE
     ---------
 Title                                                                           

 THE POINT GROUP OF THE MOLECULE IS CNV     
 THE ORDER OF THE PRINCIPAL AXIS IS     2

 YOUR FULLY SUBSTITUTED Z-MATRIX IS
 S   
 O      1   2.0000000
 O      1   2.0000000  2  170.0000

 THE MOMENTS OF INERTIA ARE (AMU-ANGSTROM**2)
 IXX=     0.486   IYY=   126.987   IZZ=   127.473

 ATOM      ATOMIC                      COORDINATES (BOHR)
           CHARGE         X                   Y                   Z
 S          16.0     0.0000000000        0.0000000000       -0.1647461779
 O           8.0    -3.7650700196        0.0000000000        0.1646547662
 O           8.0     3.7650700196        0.0000000000        0.1646547662

          INTERNUCLEAR DISTANCES (ANGS.)
          ------------------------------

                1 S          2 O          3 O     

   1 S       0.0000000    2.0000000 *  2.0000000 *
   2 O       2.0000000 *  0.0000000    3.9847788  
   3 O       2.0000000 *  3.9847788    0.0000000  

  * ... LESS THAN  3.000


     ATOMIC BASIS SET
     ----------------
 THE CONTRACTED PRIMITIVE FUNCTIONS HAVE BEEN UNNORMALIZED
 THE CONTRACTED BASIS FUNCTIONS ARE NOW NORMALIZED TO UNITY

  SHELL TYPE  PRIMITIVE        EXPONENT          CONTRACTION COEFFICIENT(S)

 S         

      1   S       1         55510.0000000    0.000587229760
      1   S       2          8326.7000000    0.004532413947
      1   S       3          1895.6000000    0.023265261648
      1   S       4           536.7700000    0.089696133027
      1   S       5           174.6700000    0.254098332277
      1   S       6            62.5780000    0.438665087637
      1   S       7            23.5730000    0.314547135094
      1   S       8             5.8908000    0.032727897102

      2   S       9          8326.7000000   -0.000019755715
      2   S      10          1895.6000000   -0.000043822381
      2   S      11           536.7700000   -0.001730264906
      2   S      12           174.6700000   -0.009381263460
      2   S      13            62.5780000   -0.064050766303
      2   S      14            23.5730000   -0.082478179196
      2   S      15             5.8908000    0.478342956889
      2   S      16             2.1852000    0.626896670208

      3   S      17          1895.6000000    0.000016227260
      3   S      18           536.7700000    0.000191135619
      3   S      19           174.6700000    0.001952069674
      3   S      20            62.5780000    0.010578701087
      3   S      21            23.5730000    0.022164934551
      3   S      22             5.8908000   -0.184968323118
      3   S      23             2.1852000   -0.480920750976
      3   S      24             0.4528200    1.243822243872

      4   S      25             0.1620200    1.000000000000

      5   P      26           395.4500000    0.004642761329
      5   P      27            92.8340000    0.036023396489
      5   P      28            29.2660000    0.149058869978
      5   P      29            10.5950000    0.360033266263
      5   P      30             4.0272000    0.455756476221
      5   P      31             1.5484000    0.206167664178

      6   P      32            92.8340000    0.000169901442
      6   P      33            29.2660000   -0.002541839934
      6   P      34            10.5950000   -0.007867614595
      6   P      35             4.0272000   -0.037231009184
      6   P      36             1.5484000    0.161417246830
      6   P      37             0.4613400    0.902230419976

      7   P      38             0.1313100    1.000000000000

      8   D      39             0.5500000    1.000000000000

 O         

     15   S      40          2306.7000000    0.005424388755
     15   S      41           347.1500000    0.040474749465
     15   S      42            78.8900000    0.180219634554
     15   S      43            21.8760000    0.462370311787
     15   S      44             6.6646000    0.454888396263

     16   S      45           347.1500000   -0.000655003786
     16   S      46            78.8900000   -0.005362052952
     16   S      47            21.8760000   -0.074902158894
     16   S      48             6.6646000   -0.181442579655
     16   S      49             1.0669000    1.102006874042

     17   S      50             0.3070000    1.000000000000

     18   P      51            17.0220000    0.068979967443
     18   P      52             3.6838000    0.351985516325
     18   P      53             0.9923400    0.724036547822

     19   P      54             0.2448700    1.000000000000

     20   D      55             1.0000000    1.000000000000

 TOTAL NUMBER OF BASIS SET SHELLS             =   20
 NUMBER OF CARTESIAN GAUSSIAN BASIS FUNCTIONS =   49
 NOTE: THIS RUN WILL RESTRICT THE MO VARIATION SPACE TO SPHERICAL HARMONICS.
 THE NUMBER OF ORBITALS KEPT IN THE VARIATIONAL SPACE WILL BE PRINTED LATER.
 NUMBER OF ELECTRONS                          =   32
 CHARGE OF MOLECULE                           =    0
 SPIN MULTIPLICITY                            =    1
 NUMBER OF OCCUPIED ORBITALS (ALPHA)          =   16
 NUMBER OF OCCUPIED ORBITALS (BETA )          =   16
 TOTAL NUMBER OF ATOMS                        =    3
 THE NUCLEAR REPULSION ENERGY IS       76.2338658285

     LEBEDEV GRID-BASED DFT OPTIONS
     ------------------------------
     DFTTYP=PBE     
     NRAD  =      96     NLEB  =     302
     NRAD0 =      24     NLEB0 =     110
     SWOFF =    5.00E-03 (PURE SCF -> DFT)
     SWITCH=    3.00E-04 (COARSE -> TIGHT GRID)
     THRESH=    0.00E+00 GTHRE=    1.00E+00

 GRIMME'S EMPIRICAL DISPERSION CORRECTION= F

     $CONTRL OPTIONS
     ---------------
 SCFTYP=RHF          RUNTYP=ENERGY       EXETYP=RUN     
 MPLEVL=       0     CITYP =NONE         CCTYP =NONE         VBTYP =NONE    
 DFTTYP=PBE          TDDFT =NONE    
 MULT  =       1     ICHARG=       0     NZVAR =       0     COORD =ZMT     
 PP    =NONE         RELWFN=NONE         LOCAL =NONE         NUMGRD=       F
 ISPHER=       1     NOSYM =       0     MAXIT =      30     UNITS =ANGS    
 PLTORB=       F     MOLPLT=       F     AIMPAC=       F     FRIEND=        
 NPRINT=       7     IREST =       0     GEOM  =INPUT   
 NORMF =       0     NORMP =       0     ITOL  =      20     ICUT  =       9
 INTTYP=BEST         GRDTYP=BEST         QMTTOL= 1.0E-06

     $SYSTEM OPTIONS
     ---------------
  REPLICATED MEMORY=     1000000 WORDS (ON EVERY NODE).
 DISTRIBUTED MEMDDI=           0 MILLION WORDS IN AGGREGATE,
 MEMDDI DISTRIBUTED OVER   1 PROCESSORS IS           0 WORDS/PROCESSOR.
 TOTAL MEMORY REQUESTED ON EACH PROCESSOR=     1000000 WORDS.
 TIMLIM=      525600.00 MINUTES, OR     365.0 DAYS.
 PARALL= F  BALTYP=  DLB     KDIAG=    0  COREFL= F
 MXSEQ2=     300 MXSEQ3=     150

          ----------------
          PROPERTIES INPUT
          ----------------

     MOMENTS            FIELD           POTENTIAL          DENSITY
 IEMOM =       1   IEFLD =       0   IEPOT =       0   IEDEN =       0
 WHERE =COMASS     WHERE =NUCLEI     WHERE =NUCLEI     WHERE =NUCLEI  
 OUTPUT=BOTH       OUTPUT=BOTH       OUTPUT=BOTH       OUTPUT=BOTH    
 IEMINT=       0   IEFINT=       0                     IEDINT=       0
                                                       MORB  =       0
          EXTRAPOLATION IN EFFECT
          DIIS IN EFFECT
 ORBITAL PRINTING OPTION: NPREO=     1    49     2     1

     -------------------------------
     INTEGRAL TRANSFORMATION OPTIONS
     -------------------------------
     NWORD  =            0
     CUTOFF = 1.0E-09     MPTRAN =       0
     DIRTRF =       F     AOINTS =DUP     

          ----------------------
          INTEGRAL INPUT OPTIONS
          ----------------------
 NOPK  =       1 NORDER=       0 SCHWRZ=       F

   --- ENCODED Z MATRIX ---
 COORD  TYPE   I   J   K   L   M   N
    1      1    3   1
    2      1    2   1
    3      2    2   1   3

 THE DETERMINANT OF THE G MATRIX IS 10**(    -4)

 THE DETERMINANT OF THE G MATRIX IS 10**(    -4)
 * * * WARNING * * *
 YOUR B MATRIX HAS A SMALL DETERMINANT.
 THIS SUGGESTS YOU MAY HAVE BADLY CHOSEN COORDINATES.

     ------------------------------------------
     THE POINT GROUP IS CNV, NAXIS= 2, ORDER= 4
     ------------------------------------------

 -- VARIATIONAL SPACE WILL BE RESTRICTED TO PURE SPHERICAL HARMONICS ONLY --
 AFTER EXCLUDING CONTAMINANT COMBINATIONS FROM THE CARTESIAN GAUSSIAN BASIS
 SET, THE NUMBER OF SPHERICAL HARMONICS KEPT IN THE VARIATION SPACE IS   46

     DIMENSIONS OF THE SYMMETRY SUBSPACES ARE
 A1  =   19     A2  =    5     B1  =   14     B2  =    8

 ..... DONE SETTING UP THE RUN .....
 STEP CPU TIME =     0.01 TOTAL CPU TIME =        0.0 (    0.0 MIN)
 TOTAL WALL CLOCK TIME=        0.0 SECONDS, CPU UTILIZATION IS  50.00%

          ********************
          1 ELECTRON INTEGRALS
          ********************
 ...... END OF ONE-ELECTRON INTEGRALS ......
 STEP CPU TIME =     0.00 TOTAL CPU TIME =        0.0 (    0.0 MIN)
 TOTAL WALL CLOCK TIME=        0.0 SECONDS, CPU UTILIZATION IS  50.00%

          -------------
          GUESS OPTIONS
          -------------
          GUESS =HUCKEL            NORB  =       0          NORDER=       0
          MIX   =       F          PRTMO =       F          PUNMO =       F
          TOLZ  = 1.0E-08          TOLE  = 1.0E-05
          SYMDEN=       F          PURIFY=       F

 INITIAL GUESS ORBITALS GENERATED BY HUCKEL   ROUTINE.
 HUCKEL GUESS REQUIRES     21583 WORDS.

 STATISTICS FOR GENERATION OF SYMMETRY ORBITAL -Q- MATRIX
 NUMBER OF CARTESIAN ATOMIC ORBITALS=         49
 NUMBER OF SPHERICAL CONTAMINANTS DROPPED=     3
 NUMBER OF LINEARLY DEPENDENT MOS DROPPED=     0
 TOTAL NUMBER OF MOS IN VARIATION SPACE=      46

 SYMMETRIES FOR INITIAL GUESS ORBITALS FOLLOW.   BOTH SET(S).
    16 ORBITALS ARE OCCUPIED (    7 CORE ORBITALS).
     8=?B1      9=?A1     10=?A1     11=?B1     12=B2      13=A1      14=A2  
    15=B1      16=?A1     17=B2      18=A1      19=B1      20=A1      21=A1  
    22=A1      23=A1      24=A1      25=A1      26=A1  
 ...... END OF INITIAL ORBITAL SELECTION ......
 STEP CPU TIME =     0.01 TOTAL CPU TIME =        0.0 (    0.0 MIN)
 TOTAL WALL CLOCK TIME=        0.0 SECONDS, CPU UTILIZATION IS  66.67%

                    ----------------------
                    AO INTEGRAL TECHNOLOGY
                    ----------------------
     S,P,L SHELL ROTATED AXIS INTEGRALS, REPROGRAMMED BY
        KAZUYA ISHIMURA (IMS) AND JOSE SIERRA (SYNSTAR).
     S,P,D,L SHELL ROTATED AXIS INTEGRALS PROGRAMMED BY
        KAZUYA ISHIMURA (INSTITUTE FOR MOLECULAR SCIENCE).
     S,P,D,F,G SHELL TO TOTAL QUARTET ANGULAR MOMENTUM SUM 5,
        ERIC PROGRAM BY GRAHAM FLETCHER (ELORET AND NASA ADVANCED
        SUPERCOMPUTING DIVISION, AMES RESEARCH CENTER).
     S,P,D,F,G,L SHELL GENERAL RYS QUADRATURE PROGRAMMED BY
        MICHEL DUPUIS (PACIFIC NORTHWEST NATIONAL LABORATORY).

          --------------------
          2 ELECTRON INTEGRALS
          --------------------

 THE -PK- OPTION IS OFF, THE INTEGRALS ARE NOT IN SUPERMATRIX FORM.
 STORING   15000 INTEGRALS/RECORD ON DISK, USING 12 BYTES/INTEGRAL.
 TWO ELECTRON INTEGRAL EVALUATION REQUIRES   90606 WORDS OF MEMORY.
 II,JST,KST,LST =  1  1  1  1 NREC =         1 INTLOC =    1
 II,JST,KST,LST =  2  1  1  1 NREC =         1 INTLOC =    2
 II,JST,KST,LST =  3  1  1  1 NREC =         1 INTLOC =    7
 II,JST,KST,LST =  4  1  1  1 NREC =         1 INTLOC =   22
 II,JST,KST,LST =  5  1  1  1 NREC =         1 INTLOC =   56
 II,JST,KST,LST =  6  1  1  1 NREC =         1 INTLOC =  125
 II,JST,KST,LST =  7  1  1  1 NREC =         1 INTLOC =  329
 II,JST,KST,LST =  8  1  1  1 NREC =         1 INTLOC =  776
 II,JST,KST,LST =  9  1  1  1 NREC =         1 INTLOC = 2864
 II,JST,KST,LST = 10  1  1  1 NREC =         1 INTLOC = 2864
 II,JST,KST,LST = 11  1  1  1 NREC =         1 INTLOC = 2864
 II,JST,KST,LST = 12  1  1  1 NREC =         1 INTLOC = 2864
 II,JST,KST,LST = 13  1  1  1 NREC =         1 INTLOC = 2864
 II,JST,KST,LST = 14  1  1  1 NREC =         1 INTLOC = 2864
 II,JST,KST,LST = 15  1  1  1 NREC =         1 INTLOC = 2864
 II,JST,KST,LST = 16  1  1  1 NREC =         1 INTLOC = 4632
 II,JST,KST,LST = 17  1  1  1 NREC =         1 INTLOC = 7513
 II,JST,KST,LST = 18  1  1  1 NREC =         1 INTLOC =11628
 II,JST,KST,LST = 19  1  1  1 NREC =         2 INTLOC =11257
 II,JST,KST,LST = 20  1  1  1 NREC =         4 INTLOC = 9660
 TOTAL NUMBER OF NONZERO TWO-ELECTRON INTEGRALS =              140261
         10 INTEGRAL RECORDS WERE STORED ON DISK FILE  8.
  ...... END OF TWO-ELECTRON INTEGRALS .....
 STEP CPU TIME =     0.15 TOTAL CPU TIME =        0.2 (    0.0 MIN)
 TOTAL WALL CLOCK TIME=        0.2 SECONDS, CPU UTILIZATION IS  94.44%

          --------------------------
               R-PBE SCF CALCULATION
          --------------------------

     NUCLEAR ENERGY =        76.2338658285
     MAXIT =   30     NPUNCH=    2
     EXTRAP=T  DAMP=F  SHIFT=F  RSTRCT=F  DIIS=T  DEM=F  SOSCF=F
         DENSITY MATRIX CONVERGENCE THRESHOLD=  1.00E-05
     COARSE -> FINE DFT GRID SWITCH THRESHOLD=  3.00E-04 (SWITCH IN $DFT)
                   HF -> DFT SWITCH THRESHOLD=  5.00E-03 (SWOFF IN $DFT)
     MEMORY REQUIRED FOR RHF ITERS=    183108 WORDS.

 DFT CODE IS SWITCHING FROM THE FINE GRID NRAD= 96,  NLEB=  302
                      TO THE COARSE GRID NRAD0= 24, NLEB0=  110

     EXCHANGE FUNCTIONAL   =PBE       
     CORRELATION FUNCTIONAL=PBE       
     DFT THRESHOLD         =.460E-07
     GRID CHANGE THRESHOLD =.300E-03
 FOR AN EULER-MACLAURIN QUADRATURE USING  96 RADIAL POINTS:
 SMALLEST GAUSSIAN PRIMITIVE EXPONENT=        0.1313100000 OF TYPE -P-
 ON ATOM NUMBER   1 HAS RADIAL NORMALIZATION=  1.000000
  LARGEST GAUSSIAN PRIMITIVE EXPONENT=    55510.0000000000 OF TYPE -S-
 ON ATOM NUMBER   1 HAS RADIAL NORMALIZATION=  0.999999
 DFT IS SWITCHED OFF, PERFORMING PURE SCF UNTIL SWOFF THRESHOLD IS REACHED.

 ITER EX DEM     TOTAL ENERGY        E CHANGE  DENSITY CHANGE    DIIS ERROR
   1  0  0     -545.3535518134  -545.3535518134   0.913521241   1.028975389
   2  1  0     -544.5274359119     0.8261159016   1.104767299   1.005192916
   3  2  0     -543.3670276337     1.1604082782   1.704592099   0.934318864
   4  3  0     -536.9728940447     6.3941335890   1.741142074   2.277716330
   5  0  0     -534.3608408291     2.6120532156   1.702100276   1.415142354
          * * *   INITIATING DIIS PROCEDURE   * * *
   6  1  0     -545.9289527446   -11.5681119155   1.010122224   0.422959967
   7  2  0     -544.5263811025     1.4025716421   0.662394396   0.959606534
   8  3  0     -546.6166999959    -2.0903188934   0.046072679   0.109001891
   9  4  0     -546.6467414916    -0.0300414957   0.037792346   0.046902596
  10  5  0     -546.6625371546    -0.0157956631   0.027305043   0.031104238
  11  6  0     -546.6717630327    -0.0092258781   0.038116737   0.027693189
  12  7  0     -546.6821718809    -0.0104088482   0.144415439   0.029758042
  13  8  0     -546.6484333140     0.0337385669   0.120737707   0.038252334
  14  9  0     -546.6240020665     0.0244312476   0.022053038   0.052094884
  15 10  0     -546.6214531860     0.0025488804   0.050514209   0.052165824
  16 11  0     -546.6271573885    -0.0057042024   0.103574382   0.022531543
  17 12  0     -546.6088401460     0.0183172425   0.082340470   0.051279457
  18 13  0     -546.6217828076    -0.0129426617   0.046426074   0.022825457
  19 14  0     -546.6167692377     0.0050135699   0.016991795   0.035042890
  20 15  0     -546.6190381638    -0.0022689260   0.030913384   0.025779200
  21 16  0     -546.6161870122     0.0028511516   0.020121080   0.037046967
  22 17  0     -546.6180533408    -0.0018663286   0.039560793   0.031364011
  23 18  0     -546.6202067744    -0.0021534336   0.056070717   0.021327791
  24 19  0     -546.6223049443    -0.0020981699   0.023958890   0.006106919
  25 20  0     -546.6227476435    -0.0004426992   0.102635965   0.004810913
  26 21  0     -546.6242226728    -0.0014750293   0.017137383   0.002126265
  27 22  0     -546.6242389992    -0.0000163264   0.025339116   0.000864773
  28 23  0     -546.6243036185    -0.0000646193   0.006385495   0.000309928
  29 24  0     -546.6243057837    -0.0000021652   0.000248254   0.000090817
 CONVERGED TO SWOFF, SO DFT CALCULATION IS NOW SWITCHED ON.
 DFT CODE IS SWITCHING BACK TO THE FINE GRID
          * * *   INITIATING DIIS PROCEDURE   * * *
  30 25  0     -547.9773312285    -1.3530254448   0.585236168   0.103544232

 SCF IS UNCONVERGED, TOO MANY ITERATIONS
     TIME TO FORM FOCK OPERATORS=       0.5 SECONDS (       0.0 SEC/ITER)
     TIME TO SOLVE SCF EQUATIONS=       0.0 SECONDS (       0.0 SEC/ITER)

 FINAL R-PBE ENERGY IS        0.0000000000 AFTER  30 ITERATIONS
 DFT EXCHANGE + CORRELATION ENERGY =       -41.9658306952
 TOTAL ELECTRON NUMBER             =        32.0000007595

          ------------
          EIGENVECTORS
          ------------

                      1          2          3          4          5
                  -88.3567   -18.8783   -18.8782    -7.9744    -5.9966
                     A1         B1         A1         A1         B2  
    1  S  1  S    1.002977   0.000000  -0.000053  -0.274218   0.000000
    2  S  1  S   -0.010271   0.000000  -0.000774   1.039657   0.000000
    3  S  1  S    0.001775   0.000000  -0.001547   0.039634   0.000000
    4  S  1  S   -0.000991   0.000000   0.004037  -0.012604   0.000000
    5  S  1  X    0.000000   0.000067   0.000000   0.000000   0.000000
    6  S  1  Y    0.000000   0.000000   0.000000   0.000000   0.997150
    7  S  1  Z   -0.000014   0.000000  -0.000009  -0.002574   0.000000
    8  S  1  X    0.000000   0.000173   0.000000   0.000000   0.000000
    9  S  1  Y    0.000000   0.000000   0.000000   0.000000   0.008170
   10  S  1  Z    0.000009   0.000000   0.000019  -0.000164   0.000000
   11  S  1  X    0.000000  -0.005867   0.000000   0.000000   0.000000
   12  S  1  Y    0.000000   0.000000   0.000000   0.000000  -0.000069
   13  S  1  Z   -0.000015   0.000000   0.000302  -0.000034   0.000000
   14  S  1 XX   -0.000037   0.000000   0.001392  -0.000147   0.000000
   15  S  1 YY    0.000019   0.000000  -0.000705   0.000246   0.000000
   16  S  1 ZZ    0.000018   0.000000  -0.000687  -0.000099   0.000000
   17  S  1 XY    0.000000   0.000000   0.000000   0.000000   0.000000
   18  S  1 XZ    0.000000  -0.000324   0.000000   0.000000   0.000000
   19  S  1 YZ    0.000000   0.000000   0.000000   0.000000  -0.000200
   20  O  2  S   -0.000003   0.703276   0.703213  -0.000014   0.000000
   21  O  2  S   -0.000026   0.024915   0.024060  -0.000098   0.000000
   22  O  2  S    0.000108  -0.010666  -0.008239   0.000885   0.000000
   23  O  2  X    0.000014   0.000764   0.000655   0.000114   0.000000
   24  O  2  Y    0.000000   0.000000   0.000000   0.000000   0.000002
   25  O  2  Z   -0.000002  -0.000121  -0.000072  -0.000015   0.000000
   26  O  2  X    0.000031  -0.002500  -0.001530   0.000094   0.000000
   27  O  2  Y    0.000000   0.000000   0.000000   0.000000  -0.000033
   28  O  2  Z    0.000000   0.000329   0.000087   0.000009   0.000000
   29  O  2 XX   -0.000014  -0.000218  -0.000275  -0.000313   0.000000
   30  O  2 YY    0.000007   0.000101   0.000129   0.000158   0.000000
   31  O  2 ZZ    0.000007   0.000117   0.000146   0.000155   0.000000
   32  O  2 XY    0.000000   0.000000   0.000000   0.000000  -0.000024
   33  O  2 XZ    0.000003   0.000033   0.000024   0.000051   0.000000
   34  O  2 YZ    0.000000   0.000000   0.000000   0.000000   0.000003
   35  O  3  S   -0.000003  -0.703276   0.703213  -0.000014   0.000000
   36  O  3  S   -0.000026  -0.024915   0.024060  -0.000098   0.000000
   37  O  3  S    0.000108   0.010666  -0.008239   0.000885   0.000000
   38  O  3  X   -0.000014   0.000764  -0.000655  -0.000114   0.000000
   39  O  3  Y    0.000000   0.000000   0.000000   0.000000   0.000002
   40  O  3  Z   -0.000002   0.000121  -0.000072  -0.000015   0.000000
   41  O  3  X   -0.000031  -0.002500   0.001530  -0.000094   0.000000
   42  O  3  Y    0.000000   0.000000   0.000000   0.000000  -0.000033
   43  O  3  Z    0.000000  -0.000329   0.000087   0.000009   0.000000
   44  O  3 XX   -0.000014   0.000218  -0.000275  -0.000313   0.000000
   45  O  3 YY    0.000007  -0.000101   0.000129   0.000158   0.000000
   46  O  3 ZZ    0.000007  -0.000117   0.000146   0.000155   0.000000
   47  O  3 XY    0.000000   0.000000   0.000000   0.000000   0.000024
   48  O  3 XZ   -0.000003   0.000033  -0.000024  -0.000051   0.000000
   49  O  3 YZ    0.000000   0.000000   0.000000   0.000000   0.000003

                      6          7          8          9         10
                   -5.9963    -5.9885    -0.9052    -0.8739    -0.7443
                     B1         A1         A1         B1         A1  
    1  S  1  S    0.000000  -0.000738   0.047634   0.000000   0.076393
    2  S  1  S    0.000000   0.002722  -0.135065   0.000000  -0.207710
    3  S  1  S    0.000000  -0.000205   0.292118   0.000000   0.491311
    4  S  1  S    0.000000   0.000159   0.241111   0.000000   0.420178
    5  S  1  X    0.997257   0.000000   0.000000   0.059696   0.000000
    6  S  1  Y    0.000000   0.000000   0.000000   0.000000   0.000000
    7  S  1  Z    0.000000   0.997280  -0.000941   0.000000   0.010660
    8  S  1  X    0.007812   0.000000   0.000000  -0.127248   0.000000
    9  S  1  Y    0.000000   0.000000   0.000000   0.000000   0.000000
   10  S  1  Z    0.000000   0.007752   0.000780   0.000000  -0.025849
   11  S  1  X    0.000115   0.000000   0.000000  -0.043158   0.000000
   12  S  1  Y    0.000000   0.000000   0.000000   0.000000   0.000000
   13  S  1  Z    0.000000   0.000097  -0.000577   0.000000  -0.010605
   14  S  1 XX    0.000000   0.000148   0.026989   0.000000  -0.020954
   15  S  1 YY    0.000000   0.000099  -0.011125   0.000000   0.015132
   16  S  1 ZZ    0.000000  -0.000247  -0.015864   0.000000   0.005822
   17  S  1 XY    0.000000   0.000000   0.000000   0.000000   0.000000
   18  S  1 XZ   -0.000191   0.000000   0.000000  -0.003318   0.000000
   19  S  1 YZ    0.000000   0.000000   0.000000   0.000000   0.000000
   20  O  2  S    0.000003   0.000002  -0.129108  -0.155896   0.099988
   21  O  2  S    0.000034   0.000019   0.262765   0.319079  -0.208547
   22  O  2  S    0.000063  -0.000055   0.325161   0.400210  -0.289013
   23  O  2  X    0.000080  -0.000004   0.055489   0.047412   0.037552
   24  O  2  Y    0.000000   0.000000   0.000000   0.000000   0.000000
   25  O  2  Z   -0.000001   0.000004  -0.006443  -0.005943  -0.003838
   26  O  2  X   -0.000056  -0.000037   0.031277   0.032263   0.008864
   27  O  2  Y    0.000000   0.000000   0.000000   0.000000   0.000000
   28  O  2  Z   -0.000017  -0.000044  -0.003776  -0.003721  -0.000575
   29  O  2 XX   -0.000021  -0.000014   0.005622   0.004547   0.004649
   30  O  2 YY    0.000010   0.000005  -0.003743  -0.003395  -0.001628
   31  O  2 ZZ    0.000011   0.000009  -0.001879  -0.001151  -0.003021
   32  O  2 XY    0.000000   0.000000   0.000000   0.000000   0.000000
   33  O  2 XZ   -0.000004  -0.000023  -0.002075  -0.002095  -0.000031
   34  O  2 YZ    0.000000   0.000000   0.000000   0.000000   0.000000
   35  O  3  S   -0.000003   0.000002  -0.129108   0.155896   0.099988
   36  O  3  S   -0.000034   0.000019   0.262765  -0.319079  -0.208547
   37  O  3  S   -0.000063  -0.000055   0.325161  -0.400210  -0.289013
   38  O  3  X    0.000080   0.000004  -0.055489   0.047412  -0.037552
   39  O  3  Y    0.000000   0.000000   0.000000   0.000000   0.000000
   40  O  3  Z    0.000001   0.000004  -0.006443   0.005943  -0.003838
   41  O  3  X   -0.000056   0.000037  -0.031277   0.032263  -0.008864
   42  O  3  Y    0.000000   0.000000   0.000000   0.000000   0.000000
   43  O  3  Z    0.000017  -0.000044  -0.003776   0.003721  -0.000575
   44  O  3 XX    0.000021  -0.000014   0.005622  -0.004547   0.004649
   45  O  3 YY   -0.000010   0.000005  -0.003743   0.003395  -0.001628
   46  O  3 ZZ   -0.000011   0.000009  -0.001879   0.001151  -0.003021
   47  O  3 XY    0.000000   0.000000   0.000000   0.000000   0.000000
   48  O  3 XZ   -0.000004   0.000023   0.002075  -0.002095   0.000031
   49  O  3 YZ    0.000000   0.000000   0.000000   0.000000   0.000000

                     11         12         13         14         15
                   -0.4453    -0.4205    -0.4125    -0.3110    -0.3048
                     B1         B2         A1         B1         A2  
    1  S  1  S    0.000000   0.000000   0.001143   0.000000   0.000000
    2  S  1  S    0.000000   0.000000  -0.000585   0.000000   0.000000
    3  S  1  S    0.000000   0.000000   0.010603   0.000000   0.000000
    4  S  1  S    0.000000   0.000000  -0.010339   0.000000   0.000000
    5  S  1  X   -0.219980   0.000000   0.000000   0.008086   0.000000
    6  S  1  Y    0.000000  -0.272947   0.000000   0.000000   0.000000
    7  S  1  Z    0.000000   0.000000  -0.265703   0.000000   0.000000
    8  S  1  X    0.537667   0.000000   0.000000  -0.022858   0.000000
    9  S  1  Y    0.000000   0.668481   0.000000   0.000000   0.000000
   10  S  1  Z    0.000000   0.000000   0.649077   0.000000   0.000000
   11  S  1  X    0.207207   0.000000   0.000000   0.009799   0.000000
   12  S  1  Y    0.000000   0.393477   0.000000   0.000000   0.000000
   13  S  1  Z    0.000000   0.000000   0.388080   0.000000   0.000000
   14  S  1 XX    0.000000   0.000000   0.005705   0.000000   0.000000
   15  S  1 YY    0.000000   0.000000   0.002331   0.000000   0.000000
   16  S  1 ZZ    0.000000   0.000000  -0.008036   0.000000   0.000000
   17  S  1 XY    0.000000   0.000000   0.000000   0.000000  -0.066572
   18  S  1 XZ   -0.004395   0.000000   0.000000  -0.063308   0.000000
   19  S  1 YZ    0.000000  -0.006068   0.000000   0.000000   0.000000
   20  O  2  S   -0.050116   0.000000   0.005792   0.001143   0.000000
   21  O  2  S    0.114548   0.000000  -0.012632  -0.004829   0.000000
   22  O  2  S    0.173603   0.000000  -0.022497   0.001892   0.000000
   23  O  2  X   -0.289285   0.000000   0.055314   0.059953   0.000000
   24  O  2  Y    0.000000   0.149232   0.000000   0.000000   0.479083
   25  O  2  Z    0.043907   0.000000   0.162390   0.477059   0.000000
   26  O  2  X   -0.181082   0.000000   0.032879   0.045235   0.000000
   27  O  2  Y    0.000000   0.086272   0.000000   0.000000   0.333826
   28  O  2  Z    0.029178   0.000000   0.095517   0.328977   0.000000
   29  O  2 XX   -0.015934   0.000000   0.003531   0.002913   0.000000
   30  O  2 YY    0.007725   0.000000  -0.000927  -0.000406   0.000000
   31  O  2 ZZ    0.008208   0.000000  -0.002604  -0.002507   0.000000
   32  O  2 XY    0.000000   0.008621   0.000000   0.000000   0.010904
   33  O  2 XZ    0.003121   0.000000   0.008459   0.010345   0.000000
   34  O  2 YZ    0.000000  -0.000903   0.000000   0.000000  -0.001241
   35  O  3  S    0.050116   0.000000   0.005792  -0.001143   0.000000
   36  O  3  S   -0.114548   0.000000  -0.012632   0.004829   0.000000
   37  O  3  S   -0.173603   0.000000  -0.022497  -0.001892   0.000000
   38  O  3  X   -0.289285   0.000000  -0.055314   0.059953   0.000000
   39  O  3  Y    0.000000   0.149232   0.000000   0.000000  -0.479083
   40  O  3  Z   -0.043907   0.000000   0.162390  -0.477059   0.000000
   41  O  3  X   -0.181082   0.000000  -0.032879   0.045235   0.000000
   42  O  3  Y    0.000000   0.086272   0.000000   0.000000  -0.333826
   43  O  3  Z   -0.029178   0.000000   0.095517  -0.328977   0.000000
   44  O  3 XX    0.015934   0.000000   0.003531  -0.002913   0.000000
   45  O  3 YY   -0.007725   0.000000  -0.000927   0.000406   0.000000
   46  O  3 ZZ   -0.008208   0.000000  -0.002604   0.002507   0.000000
   47  O  3 XY    0.000000  -0.008621   0.000000   0.000000   0.010904
   48  O  3 XZ    0.003121   0.000000  -0.008459   0.010345   0.000000
   49  O  3 YZ    0.000000  -0.000903   0.000000   0.000000   0.001241

                     16         17         18         19         20
                   -0.2987    -0.2773    -0.2735    -0.1362     0.3154
                     A1         B2         A1         B1         B2  
    1  S  1  S   -0.017249   0.000000  -0.013435   0.000000   0.000000
    2  S  1  S    0.051409   0.000000   0.036907   0.000000   0.000000
    3  S  1  S   -0.112063   0.000000  -0.091448   0.000000   0.000000
    4  S  1  S   -0.209033   0.000000  -0.145323   0.000000   0.000000
    5  S  1  X    0.000000   0.000000   0.000000  -0.232391   0.000000
    6  S  1  Y    0.000000   0.123145   0.000000   0.000000   0.286942
    7  S  1  Z   -0.055713   0.000000   0.122352   0.000000   0.000000
    8  S  1  X    0.000000   0.000000   0.000000   0.620859   0.000000
    9  S  1  Y    0.000000  -0.320723   0.000000   0.000000  -1.121686
   10  S  1  Z    0.144966   0.000000  -0.315481   0.000000   0.000000
   11  S  1  X    0.000000   0.000000   0.000000   0.503259   0.000000
   12  S  1  Y    0.000000  -0.164614   0.000000   0.000000   1.218871
   13  S  1  Z    0.060052   0.000000  -0.182096   0.000000   0.000000
   14  S  1 XX    0.101157   0.000000   0.063923   0.000000   0.000000
   15  S  1 YY   -0.049351   0.000000  -0.041570   0.000000   0.000000
   16  S  1 ZZ   -0.051806   0.000000  -0.022354   0.000000   0.000000
   17  S  1 XY    0.000000   0.000000   0.000000   0.000000   0.000000
   18  S  1 XZ    0.000000   0.000000   0.000000  -0.038947   0.000000
   19  S  1 YZ    0.000000   0.009598   0.000000   0.000000   0.003591
   20  O  2  S    0.006686   0.000000   0.001141  -0.033622   0.000000
   21  O  2  S   -0.021511   0.000000  -0.006548   0.069078   0.000000
   22  O  2  S    0.002222   0.000000   0.014604   0.212677   0.000000
   23  O  2  X    0.369370   0.000000   0.308855   0.419857   0.000000
   24  O  2  Y    0.000000   0.469780   0.000000   0.000000  -0.120793
   25  O  2  Z   -0.308036   0.000000   0.350074  -0.057416   0.000000
   26  O  2  X    0.257254   0.000000   0.215714   0.340942   0.000000
   27  O  2  Y    0.000000   0.320952   0.000000   0.000000  -0.052816
   28  O  2  Z   -0.208926   0.000000   0.237942  -0.037090   0.000000
   29  O  2 XX    0.009329   0.000000   0.006670  -0.002703   0.000000
   30  O  2 YY   -0.005040   0.000000  -0.002961   0.001300   0.000000
   31  O  2 ZZ   -0.004289   0.000000  -0.003710   0.001403   0.000000
   32  O  2 XY    0.000000   0.005607   0.000000   0.000000   0.002879
   33  O  2 XZ   -0.005667   0.000000   0.002311   0.001687   0.000000
   34  O  2 YZ    0.000000  -0.000683   0.000000   0.000000  -0.000284
   35  O  3  S    0.006686   0.000000   0.001141   0.033622   0.000000
   36  O  3  S   -0.021511   0.000000  -0.006548  -0.069078   0.000000
   37  O  3  S    0.002222   0.000000   0.014604  -0.212677   0.000000
   38  O  3  X   -0.369370   0.000000  -0.308855   0.419857   0.000000
   39  O  3  Y    0.000000   0.469780   0.000000   0.000000  -0.120793
   40  O  3  Z   -0.308036   0.000000   0.350074   0.057416   0.000000
   41  O  3  X   -0.257254   0.000000  -0.215714   0.340942   0.000000
   42  O  3  Y    0.000000   0.320952   0.000000   0.000000  -0.052816
   43  O  3  Z   -0.208926   0.000000   0.237942   0.037090   0.000000
   44  O  3 XX    0.009329   0.000000   0.006670   0.002703   0.000000
   45  O  3 YY   -0.005040   0.000000  -0.002961  -0.001300   0.000000
   46  O  3 ZZ   -0.004289   0.000000  -0.003710  -0.001403   0.000000
   47  O  3 XY    0.000000  -0.005607   0.000000   0.000000  -0.002879
   48  O  3 XZ    0.005667   0.000000  -0.002311   0.001687   0.000000
   49  O  3 YZ    0.000000  -0.000683   0.000000   0.000000  -0.000284

                     21         22         23         24         25
                    0.3193     0.3349     0.3374     0.3898     0.4137
                     A1         A1         B1         A2         B1  
    1  S  1  S    0.029682  -0.097743   0.000000   0.000000   0.000000
    2  S  1  S    0.101756  -0.352446   0.000000   0.000000   0.000000
    3  S  1  S    0.452631  -1.512243   0.000000   0.000000   0.000000
    4  S  1  S   -0.500087   1.748458   0.000000   0.000000   0.000000
    5  S  1  X    0.000000   0.000000   0.220805   0.000000   0.090882
    6  S  1  Y    0.000000   0.000000   0.000000   0.000000   0.000000
    7  S  1  Z    0.278506   0.070241   0.000000   0.000000   0.000000
    8  S  1  X    0.000000   0.000000  -0.947994   0.000000  -0.411682
    9  S  1  Y    0.000000   0.000000   0.000000   0.000000   0.000000
   10  S  1  Z   -1.086773  -0.276782   0.000000   0.000000   0.000000
   11  S  1  X    0.000000   0.000000   1.726000   0.000000   0.838434
   12  S  1  Y    0.000000   0.000000   0.000000   0.000000   0.000000
   13  S  1  Z    1.171256   0.319272   0.000000   0.000000   0.000000
   14  S  1 XX    0.075041  -0.440822   0.000000   0.000000   0.000000
   15  S  1 YY   -0.043853   0.240283   0.000000   0.000000   0.000000
   16  S  1 ZZ   -0.031188   0.200540   0.000000   0.000000   0.000000
   17  S  1 XY    0.000000   0.000000   0.000000   0.893614   0.000000
   18  S  1 XZ    0.000000   0.000000  -0.344527   0.000000   0.819496
   19  S  1 YZ    0.000000   0.000000   0.000000   0.000000   0.000000
   20  O  2  S   -0.002002   0.007875  -0.041479   0.000000  -0.027040
   21  O  2  S    0.005764   0.013233   0.066021   0.000000   0.087658
   22  O  2  S    0.010904  -0.166490   0.523633   0.000000   0.225441
   23  O  2  X   -0.012385   0.099475  -0.109174   0.000000   0.021196
   24  O  2  Y    0.000000   0.000000   0.000000   0.278372   0.000000
   25  O  2  Z   -0.112100  -0.061832  -0.113636   0.000000   0.250380
   26  O  2  X    0.016549  -0.157810   0.400791   0.000000   0.187795
   27  O  2  Y    0.000000   0.000000   0.000000  -0.180714   0.000000
   28  O  2  Z   -0.051477   0.014555   0.021969   0.000000  -0.198447
   29  O  2 XX    0.006258  -0.041105   0.041946   0.000000   0.004750
   30  O  2 YY   -0.002988   0.021211  -0.019924   0.000000  -0.005839
   31  O  2 ZZ   -0.003271   0.019894  -0.022022   0.000000   0.001089
   32  O  2 XY    0.000000   0.000000   0.000000  -0.039956   0.000000
   33  O  2 XZ    0.001450   0.010271   0.009457   0.000000  -0.037781
   34  O  2 YZ    0.000000   0.000000   0.000000   0.004132   0.000000
   35  O  3  S   -0.002002   0.007875   0.041479   0.000000   0.027040
   36  O  3  S    0.005764   0.013233  -0.066021   0.000000  -0.087658
   37  O  3  S    0.010904  -0.166490  -0.523633   0.000000  -0.225441
   38  O  3  X    0.012385  -0.099475  -0.109174   0.000000   0.021196
   39  O  3  Y    0.000000   0.000000   0.000000  -0.278372   0.000000
   40  O  3  Z   -0.112100  -0.061832   0.113636   0.000000  -0.250380
   41  O  3  X   -0.016549   0.157810   0.400791   0.000000   0.187795
   42  O  3  Y    0.000000   0.000000   0.000000   0.180714   0.000000
   43  O  3  Z   -0.051477   0.014555  -0.021969   0.000000   0.198447
   44  O  3 XX    0.006258  -0.041105  -0.041946   0.000000  -0.004750
   45  O  3 YY   -0.002988   0.021211   0.019924   0.000000   0.005839
   46  O  3 ZZ   -0.003271   0.019894   0.022022   0.000000  -0.001089
   47  O  3 XY    0.000000   0.000000   0.000000  -0.039956   0.000000
   48  O  3 XZ   -0.001450  -0.010271   0.009457   0.000000  -0.037781
   49  O  3 YZ    0.000000   0.000000   0.000000  -0.004132   0.000000

                     26         27         28         29         30
                    0.4188     0.4192     0.5687     0.7777     0.7780
                     B2         A1         A1         A1         B1  
    1  S  1  S    0.000000   0.003035  -0.062234  -0.000480   0.000000
    2  S  1  S    0.000000   0.015236  -0.242259  -0.001955   0.000000
    3  S  1  S    0.000000   0.052825  -0.990624  -0.007629   0.000000
    4  S  1  S    0.000000  -0.070889   1.160069   0.012213   0.000000
    5  S  1  X    0.000000   0.000000   0.000000   0.000000   0.007060
    6  S  1  Y   -0.004740   0.000000   0.000000   0.000000   0.000000
    7  S  1  Z    0.000000   0.003947   0.019757  -0.034359   0.000000
    8  S  1  X    0.000000   0.000000   0.000000   0.000000  -0.027381
    9  S  1  Y    0.016627   0.000000   0.000000   0.000000   0.000000
   10  S  1  Z    0.000000  -0.013163  -0.084880   0.181568   0.000000
   11  S  1  X    0.000000   0.000000   0.000000   0.000000  -0.034587
   12  S  1  Y   -0.013817   0.000000   0.000000   0.000000   0.000000
   13  S  1  Z    0.000000   0.008416   0.124714  -0.464551   0.000000
   14  S  1 XX    0.000000  -0.006019   0.792097   0.084787   0.000000
   15  S  1 YY    0.000000   0.867508  -0.380843  -0.000226   0.000000
   16  S  1 ZZ    0.000000  -0.861489  -0.411254  -0.084561   0.000000
   17  S  1 XY    0.000000   0.000000   0.000000   0.000000   0.000000
   18  S  1 XZ    0.000000   0.000000   0.000000   0.000000   0.468433
   19  S  1 YZ    0.998759   0.000000   0.000000   0.000000   0.000000
   20  O  2  S    0.000000  -0.001408   0.042238   0.001343   0.000268
   21  O  2  S    0.000000   0.006411  -0.272003  -0.010879  -0.001973
   22  O  2  S    0.000000   0.004031   0.023998   0.013338  -0.006417
   23  O  2  X    0.000000   0.007434  -0.235024  -0.057393   0.001151
   24  O  2  Y   -0.027767   0.000000   0.000000   0.000000   0.000000
   25  O  2  Z    0.000000   0.027966   0.054521  -0.621277  -0.579395
   26  O  2  X    0.000000   0.005497  -0.080023   0.059277   0.002594
   27  O  2  Y    0.020623   0.000000   0.000000   0.000000   0.000000
   28  O  2  Z    0.000000  -0.021477  -0.037532   0.803498   0.722034
   29  O  2 XX    0.000000  -0.000816   0.041177   0.006764  -0.008826
   30  O  2 YY    0.000000   0.006391  -0.020695  -0.004025   0.001649
   31  O  2 ZZ    0.000000  -0.005575  -0.020481  -0.002739   0.007177
   32  O  2 XY    0.004669   0.000000   0.000000   0.000000   0.000000
   33  O  2 XZ    0.000000  -0.004620  -0.011394  -0.013853  -0.028767
   34  O  2 YZ    0.006922   0.000000   0.000000   0.000000   0.000000
   35  O  3  S    0.000000  -0.001408   0.042238   0.001343  -0.000268
   36  O  3  S    0.000000   0.006411  -0.272003  -0.010879   0.001973
   37  O  3  S    0.000000   0.004031   0.023998   0.013338   0.006417
   38  O  3  X    0.000000  -0.007434   0.235024   0.057393   0.001151
   39  O  3  Y   -0.027767   0.000000   0.000000   0.000000   0.000000
   40  O  3  Z    0.000000   0.027966   0.054521  -0.621277   0.579395
   41  O  3  X    0.000000  -0.005497   0.080023  -0.059277   0.002594
   42  O  3  Y    0.020623   0.000000   0.000000   0.000000   0.000000
   43  O  3  Z    0.000000  -0.021477  -0.037532   0.803498  -0.722034
   44  O  3 XX    0.000000  -0.000816   0.041177   0.006764   0.008826
   45  O  3 YY    0.000000   0.006391  -0.020695  -0.004025  -0.001649
   46  O  3 ZZ    0.000000  -0.005575  -0.020481  -0.002739  -0.007177
   47  O  3 XY   -0.004669   0.000000   0.000000   0.000000   0.000000
   48  O  3 XZ    0.000000   0.004620   0.011394   0.013853  -0.028767
   49  O  3 YZ    0.006922   0.000000   0.000000   0.000000   0.000000

                     31         32         33         34         35
                    0.7794     0.7811     0.8239     0.8297     1.4034
                     B2         A2         A1         B1         A1  
    1  S  1  S    0.000000   0.000000  -0.007471   0.000000   0.023527
    2  S  1  S    0.000000   0.000000   0.056235   0.000000   0.222354
    3  S  1  S    0.000000   0.000000  -0.017869   0.000000   0.538799
    4  S  1  S    0.000000   0.000000  -0.469159   0.000000  -1.141089
    5  S  1  X    0.000000   0.000000   0.000000  -0.110027   0.000000
    6  S  1  Y   -0.034120   0.000000   0.000000   0.000000   0.000000
    7  S  1  Z    0.000000   0.000000   0.008151   0.000000   0.000822
    8  S  1  X    0.000000   0.000000   0.000000   0.481428   0.000000
    9  S  1  Y    0.180552   0.000000   0.000000   0.000000   0.000000
   10  S  1  Z    0.000000   0.000000  -0.034613   0.000000   0.003574
   11  S  1  X    0.000000   0.000000   0.000000   0.005817   0.000000
   12  S  1  Y   -0.464571   0.000000   0.000000   0.000000   0.000000
   13  S  1  Z    0.000000   0.000000  -0.019150   0.000000  -0.085135
   14  S  1 XX    0.000000   0.000000  -0.290184   0.000000  -0.476527
   15  S  1 YY    0.000000   0.000000   0.146863   0.000000   0.241023
   16  S  1 ZZ    0.000000   0.000000   0.143321   0.000000   0.235504
   17  S  1 XY    0.000000   0.468065   0.000000   0.000000   0.000000
   18  S  1 XZ    0.000000   0.000000   0.000000   0.062774   0.000000
   19  S  1 YZ   -0.047706   0.000000   0.000000   0.000000   0.000000
   20  O  2  S    0.000000   0.000000  -0.028913  -0.018943   0.024779
   21  O  2  S    0.000000   0.000000   0.306036   0.220663  -1.050115
   22  O  2  S    0.000000   0.000000  -0.184260  -0.161284   1.224982
   23  O  2  X    0.000000   0.000000  -0.579267  -0.601545  -0.148803
   24  O  2  Y   -0.626918  -0.580817   0.000000   0.000000   0.000000
   25  O  2  Z    0.000000   0.000000   0.036262   0.013356   0.002949
   26  O  2  X    0.000000   0.000000   0.856195   0.818464   0.477151
   27  O  2  Y    0.806415   0.722038   0.000000   0.000000   0.000000
   28  O  2  Z    0.000000   0.000000  -0.057561  -0.021891  -0.020267
   29  O  2 XX    0.000000   0.000000  -0.044310  -0.040876  -0.176085
   30  O  2 YY    0.000000   0.000000   0.022238   0.020147   0.088331
   31  O  2 ZZ    0.000000   0.000000   0.022072   0.020729   0.087754
   32  O  2 XY   -0.011713  -0.029841   0.000000   0.000000   0.000000
   33  O  2 XZ    0.000000   0.000000   0.008067   0.003038   0.028984
   34  O  2 YZ    0.000663   0.003234   0.000000   0.000000   0.000000
   35  O  3  S    0.000000   0.000000  -0.028913   0.018943   0.024779
   36  O  3  S    0.000000   0.000000   0.306036  -0.220663  -1.050115
   37  O  3  S    0.000000   0.000000  -0.184260   0.161284   1.224982
   38  O  3  X    0.000000   0.000000   0.579267  -0.601545   0.148803
   39  O  3  Y   -0.626918   0.580817   0.000000   0.000000   0.000000
   40  O  3  Z    0.000000   0.000000   0.036262  -0.013356   0.002949
   41  O  3  X    0.000000   0.000000  -0.856195   0.818464  -0.477151
   42  O  3  Y    0.806415  -0.722038   0.000000   0.000000   0.000000
   43  O  3  Z    0.000000   0.000000  -0.057561   0.021891  -0.020267
   44  O  3 XX    0.000000   0.000000  -0.044310   0.040876  -0.176085
   45  O  3 YY    0.000000   0.000000   0.022238  -0.020147   0.088331
   46  O  3 ZZ    0.000000   0.000000   0.022072  -0.020729   0.087754
   47  O  3 XY    0.011713  -0.029841   0.000000   0.000000   0.000000
   48  O  3 XZ    0.000000   0.000000  -0.008067   0.003038  -0.028984
   49  O  3 YZ    0.000663  -0.003234   0.000000   0.000000   0.000000

                     36         37         38         39         40
                    1.6012     2.0806     2.0812     2.0815     2.0815
                     B1         A1         B2         A2         B1  
    1  S  1  S    0.000000  -0.000215   0.000000   0.000000   0.000000
    2  S  1  S    0.000000  -0.003907   0.000000   0.000000   0.000000
    3  S  1  S    0.000000  -0.007436   0.000000   0.000000   0.000000
    4  S  1  S    0.000000   0.018893   0.000000   0.000000   0.000000
    5  S  1  X   -0.012686   0.000000   0.000000   0.000000   0.001300
    6  S  1  Y    0.000000   0.000000   0.000885   0.000000   0.000000
    7  S  1  Z    0.000000   0.001141   0.000000   0.000000   0.000000
    8  S  1  X   -0.071502   0.000000   0.000000   0.000000  -0.004032
    9  S  1  Y    0.000000   0.000000  -0.011772   0.000000   0.000000
   10  S  1  Z    0.000000  -0.016887   0.000000   0.000000   0.000000
   11  S  1  X    1.324750   0.000000   0.000000   0.000000  -0.006304
   12  S  1  Y    0.000000   0.000000   0.039721   0.000000   0.000000
   13  S  1  Z    0.000000   0.059606   0.000000   0.000000   0.000000
   14  S  1 XX    0.000000   0.002543   0.000000   0.000000   0.000000
   15  S  1 YY    0.000000   0.007433   0.000000   0.000000   0.000000
   16  S  1 ZZ    0.000000  -0.009975   0.000000   0.000000   0.000000
   17  S  1 XY    0.000000   0.000000   0.000000  -0.021266   0.000000
   18  S  1 XZ    0.102810   0.000000   0.000000   0.000000  -0.026826
   19  S  1 YZ    0.000000   0.000000  -0.013074   0.000000   0.000000
   20  O  2  S    0.015456   0.000422   0.000000   0.000000   0.000357
   21  O  2  S   -1.210858   0.008154   0.000000   0.000000   0.005765
   22  O  2  S    1.692047  -0.014552   0.000000   0.000000  -0.010438
   23  O  2  X   -0.170635   0.003816   0.000000   0.000000   0.002164
   24  O  2  Y    0.000000   0.000000   0.007479   0.003214   0.000000
   25  O  2  Z    0.024010   0.010781   0.000000   0.000000   0.003608
   26  O  2  X    0.614932  -0.010013   0.000000   0.000000  -0.006114
   27  O  2  Y    0.000000   0.000000  -0.012098  -0.003955   0.000000
   28  O  2  Z   -0.077076  -0.017583   0.000000   0.000000  -0.004168
   29  O  2 XX   -0.111360  -0.058377   0.000000   0.000000  -0.022640
   30  O  2 YY    0.054549  -0.540541   0.000000   0.000000  -0.599025
   31  O  2 ZZ    0.056811   0.598918   0.000000   0.000000   0.621666
   32  O  2 XY    0.000000   0.000000  -0.155565  -0.033508   0.000000
   33  O  2 XZ    0.012449  -0.254004   0.000000   0.000000  -0.052563
   34  O  2 YZ    0.000000   0.000000   0.690016   0.706306   0.000000
   35  O  3  S   -0.015456   0.000422   0.000000   0.000000  -0.000357
   36  O  3  S    1.210858   0.008154   0.000000   0.000000  -0.005765
   37  O  3  S   -1.692047  -0.014552   0.000000   0.000000   0.010438
   38  O  3  X   -0.170635  -0.003816   0.000000   0.000000   0.002164
   39  O  3  Y    0.000000   0.000000   0.007479  -0.003214   0.000000
   40  O  3  Z   -0.024010   0.010781   0.000000   0.000000  -0.003608
   41  O  3  X    0.614932   0.010013   0.000000   0.000000  -0.006114
   42  O  3  Y    0.000000   0.000000  -0.012098   0.003955   0.000000
   43  O  3  Z    0.077076  -0.017583   0.000000   0.000000   0.004168
   44  O  3 XX    0.111360  -0.058377   0.000000   0.000000   0.022640
   45  O  3 YY   -0.054549  -0.540541   0.000000   0.000000   0.599025
   46  O  3 ZZ   -0.056811   0.598918   0.000000   0.000000  -0.621666
   47  O  3 XY    0.000000   0.000000   0.155565  -0.033508   0.000000
   48  O  3 XZ    0.012449   0.254004   0.000000   0.000000  -0.052563
   49  O  3 YZ    0.000000   0.000000   0.690016  -0.706306   0.000000

                     41         42         43         44         45
                    2.0904     2.0950     2.0973     2.1055     2.1649
                     A1         B2         B1         A2         B1  
    1  S  1  S    0.000153   0.000000   0.000000   0.000000   0.000000
    2  S  1  S    0.002870   0.000000   0.000000   0.000000   0.000000
    3  S  1  S    0.005418   0.000000   0.000000   0.000000   0.000000
    4  S  1  S   -0.013608   0.000000   0.000000   0.000000   0.000000
    5  S  1  X    0.000000   0.000000   0.013356   0.000000  -0.076377
    6  S  1  Y    0.000000  -0.002733   0.000000   0.000000   0.000000
    7  S  1  Z   -0.002469   0.000000   0.000000   0.000000   0.000000
    8  S  1  X    0.000000   0.000000  -0.037339   0.000000   0.229371
    9  S  1  Y    0.000000   0.036853   0.000000   0.000000   0.000000
   10  S  1  Z    0.034427   0.000000   0.000000   0.000000   0.000000
   11  S  1  X    0.000000   0.000000  -0.058771   0.000000   0.269368
   12  S  1  Y    0.000000  -0.125157   0.000000   0.000000   0.000000
   13  S  1  Z   -0.118689   0.000000   0.000000   0.000000   0.000000
   14  S  1 XX    0.011233   0.000000   0.000000   0.000000   0.000000
   15  S  1 YY    0.011691   0.000000   0.000000   0.000000   0.000000
   16  S  1 ZZ   -0.022924   0.000000   0.000000   0.000000   0.000000
   17  S  1 XY    0.000000   0.000000   0.000000   0.142506   0.000000
   18  S  1 XZ    0.000000   0.000000   0.126736   0.000000   0.091457
   19  S  1 YZ    0.000000  -0.018079   0.000000   0.000000   0.000000
   20  O  2  S   -0.000143   0.000000  -0.000313   0.000000  -0.000533
   21  O  2  S   -0.006001   0.000000   0.046490   0.000000  -0.255673
   22  O  2  S    0.011104   0.000000  -0.068362   0.000000   0.377406
   23  O  2  X   -0.004067   0.000000   0.014939   0.000000  -0.089278
   24  O  2  Y    0.000000  -0.023257   0.000000  -0.020055   0.000000
   25  O  2  Z   -0.021830   0.000000  -0.020443   0.000000   0.002386
   26  O  2  X    0.008688   0.000000  -0.038136   0.000000   0.233747
   27  O  2  Y    0.000000   0.039426   0.000000   0.025898   0.000000
   28  O  2  Z    0.037241   0.000000   0.028071   0.000000  -0.013107
   29  O  2 XX    0.109744   0.000000  -0.019390   0.000000   0.704388
   30  O  2 YY   -0.279041   0.000000  -0.035305   0.000000  -0.373312
   31  O  2 ZZ    0.169297   0.000000   0.054696   0.000000  -0.331076
   32  O  2 XY    0.000000   0.692455   0.000000   0.706230   0.000000
   33  O  2 XZ    0.651087   0.000000   0.704877   0.000000   0.017693
   34  O  2 YZ    0.000000   0.154539   0.000000   0.033558   0.000000
   35  O  3  S   -0.000143   0.000000   0.000313   0.000000   0.000533
   36  O  3  S   -0.006001   0.000000  -0.046490   0.000000   0.255673
   37  O  3  S    0.011104   0.000000   0.068362   0.000000  -0.377406
   38  O  3  X    0.004067   0.000000   0.014939   0.000000  -0.089278
   39  O  3  Y    0.000000  -0.023257   0.000000   0.020055   0.000000
   40  O  3  Z   -0.021830   0.000000   0.020443   0.000000  -0.002386
   41  O  3  X   -0.008688   0.000000  -0.038136   0.000000   0.233747
   42  O  3  Y    0.000000   0.039426   0.000000  -0.025898   0.000000
   43  O  3  Z    0.037241   0.000000  -0.028071   0.000000   0.013107
   44  O  3 XX    0.109744   0.000000   0.019390   0.000000  -0.704388
   45  O  3 YY   -0.279041   0.000000   0.035305   0.000000   0.373312
   46  O  3 ZZ    0.169297   0.000000  -0.054696   0.000000   0.331076
   47  O  3 XY    0.000000  -0.692455   0.000000   0.706230   0.000000
   48  O  3 XZ   -0.651087   0.000000   0.704877   0.000000   0.017693
   49  O  3 YZ    0.000000   0.154539   0.000000  -0.033558   0.000000

                     46
                    2.3456
                     A1  
    1  S  1  S   -0.006112
    2  S  1  S   -0.144566
    3  S  1  S   -0.255187
    4  S  1  S    0.700057
    5  S  1  X    0.000000
    6  S  1  Y    0.000000
    7  S  1  Z   -0.007101
    8  S  1  X    0.000000
    9  S  1  Y    0.000000
   10  S  1  Z    0.021549
   11  S  1  X    0.000000
   12  S  1  Y    0.000000
   13  S  1  Z    0.032245
   14  S  1 XX    0.501525
   15  S  1 YY   -0.253102
   16  S  1 ZZ   -0.248423
   17  S  1 XY    0.000000
   18  S  1 XZ    0.000000
   19  S  1 YZ    0.000000
   20  O  2  S    0.003813
   21  O  2  S    0.334948
   22  O  2  S   -0.478450
   23  O  2  X    0.101327
   24  O  2  Y    0.000000
   25  O  2  Z   -0.009761
   26  O  2  X   -0.343101
   27  O  2  Y    0.000000
   28  O  2  Z    0.030703
   29  O  2 XX   -0.693297
   30  O  2 YY    0.359286
   31  O  2 ZZ    0.334012
   32  O  2 XY    0.000000
   33  O  2 XZ    0.122201
   34  O  2 YZ    0.000000
   35  O  3  S    0.003813
   36  O  3  S    0.334948
   37  O  3  S   -0.478450
   38  O  3  X   -0.101327
   39  O  3  Y    0.000000
   40  O  3  Z   -0.009761
   41  O  3  X    0.343101
   42  O  3  Y    0.000000
   43  O  3  Z    0.030703
   44  O  3 XX   -0.693297
   45  O  3 YY    0.359286
   46  O  3 ZZ    0.334012
   47  O  3 XY    0.000000
   48  O  3 XZ   -0.122201
   49  O  3 YZ    0.000000
 ...... END OF RHF CALCULATION ......
 STEP CPU TIME =     0.58 TOTAL CPU TIME =        0.8 (    0.0 MIN)
 TOTAL WALL CLOCK TIME=        0.8 SECONDS, CPU UTILIZATION IS  98.68%

     ---------------------------------------------------------------------
     PROPERTIES FOR THE PBE      DFT FUNCTIONAL (RHF  TYPE) DENSITY MATRIX
     ---------------------------------------------------------------------

          -----------------
          ENERGY COMPONENTS
          -----------------

         WAVEFUNCTION NORMALIZATION =       1.0000000000

                ONE ELECTRON ENERGY =    -910.7505745667
                TWO ELECTRON ENERGY =     834.5167087381
           NUCLEAR REPULSION ENERGY =      76.2338658285
                                      ------------------
                       TOTAL ENERGY =       0.0000000000

 ELECTRON-ELECTRON POTENTIAL ENERGY =     834.5167087381
  NUCLEUS-ELECTRON POTENTIAL ENERGY =   -1458.3443112858
   NUCLEUS-NUCLEUS POTENTIAL ENERGY =      76.2338658285
                                      ------------------
             TOTAL POTENTIAL ENERGY =    -547.5937367191
               TOTAL KINETIC ENERGY =     547.5937367191
                 VIRIAL RATIO (V/T) =       1.0000000000

          ---------------------------------------
          MULLIKEN AND LOWDIN POPULATION ANALYSES
          ---------------------------------------

     ATOMIC MULLIKEN POPULATION IN EACH MOLECULAR ORBITAL

                      1          2          3          4          5

                  2.000000   2.000000   2.000000   2.000000   2.000000

    1             1.999999   0.000758   0.000162   1.999941   2.000001
    2             0.000001   0.999621   0.999919   0.000030  -0.000001
    3             0.000001   0.999621   0.999919   0.000030  -0.000001

                      6          7          8          9         10

                  2.000000   2.000000   2.000000   2.000000   2.000000

    1             1.999994   2.000002   0.646735   0.128367   1.298444
    2             0.000003  -0.000001   0.676632   0.935817   0.350778
    3             0.000003  -0.000001   0.676632   0.935817   0.350778

                     11         12         13         14         15

                  2.000000   2.000000   2.000000   2.000000   2.000000

    1             0.942344   1.762621   1.692941   0.021579   0.022137
    2             0.528828   0.118690   0.153529   0.989210   0.988932
    3             0.528828   0.118690   0.153529   0.989210   0.988932

                     16

                  2.000000

    1             0.147558
    2             0.926221
    3             0.926221

               ----- POPULATIONS IN EACH AO -----
                             MULLIKEN      LOWDIN
              1  S  1  S      2.00020     1.99627
              2  S  1  S      2.01053     1.97538
              3  S  1  S      1.11642     0.70689
              4  S  1  S      0.84576     0.55168
              5  S  1  X      1.99708     1.95911
              6  S  1  Y      1.99790     1.97185
              7  S  1  Z      1.99802     1.97167
              8  S  1  X      0.80612     0.73354
              9  S  1  Y      1.11047     1.05440
             10  S  1  Z      1.10010     1.04787
             11  S  1  X      0.26907     0.40892
             12  S  1  Y      0.65421     0.71953
             13  S  1  Z      0.64491     0.71014
             14  S  1 XX      0.01822     0.24449
             15  S  1 YY      0.05163     0.27913
             16  S  1 ZZ      0.02214     0.26913
             17  S  1 XY      0.02077     0.02399
             18  S  1 XZ      0.00004     0.02295
             19  S  1 YZ      0.00000     0.00006
             20  O  2  S      1.99807     1.98185
             21  O  2  S      0.87560     0.68462
             22  O  2  S      1.11300     0.63177
             23  O  2  X      0.64531     0.61399
             24  O  2  Y      0.67404     0.65267
             25  O  2  Z      0.93157     0.90538
             26  O  2  X      0.42314     0.49717
             27  O  2  Y      0.43252     0.46103
             28  O  2  Z      0.56947     0.60047
             29  O  2 XX      0.00086     0.21146
             30  O  2 YY      0.00248     0.21489
             31  O  2 ZZ      0.00106     0.21840
             32  O  2 XY      0.00109     0.00137
             33  O  2 XZ      0.00001     0.00141
             34  O  2 YZ      0.00000     0.00001
             35  O  3  S      1.99807     1.98185
             36  O  3  S      0.87560     0.68462
             37  O  3  S      1.11300     0.63177
             38  O  3  X      0.64531     0.61399
             39  O  3  Y      0.67404     0.65267
             40  O  3  Z      0.93157     0.90538
             41  O  3  X      0.42314     0.49717
             42  O  3  Y      0.43252     0.46103
             43  O  3  Z      0.56947     0.60047
             44  O  3 XX      0.00086     0.21146
             45  O  3 YY      0.00248     0.21489
             46  O  3 ZZ      0.00106     0.21840
             47  O  3 XY      0.00109     0.00137
             48  O  3 XZ      0.00001     0.00141
             49  O  3 YZ      0.00000     0.00001

          ----- MULLIKEN ATOMIC OVERLAP POPULATIONS -----
          (OFF-DIAGONAL ELEMENTS NEED TO BE MULTIPLIED BY 2)

             1           2           3

    1   16.4327703
    2    0.1154062   7.5520984
    3    0.1154062   0.0007040   7.5520984

          TOTAL MULLIKEN AND LOWDIN ATOMIC POPULATIONS
       ATOM         MULL.POP.    CHARGE          LOW.POP.     CHARGE
    1 S            16.663583   -0.663583        16.647001   -0.647001
    2 O             7.668209    0.331791         7.676500    0.323500
    3 O             7.668209    0.331791         7.676500    0.323500

          MULLIKEN SPHERICAL HARMONIC POPULATIONS
       ATOM           S       P       D      F      G      H      I    TOTAL
    1 S             5.97   10.58    0.11   0.00   0.00   0.00   0.00   16.66
    2 O             3.99    3.68    0.01   0.00   0.00   0.00   0.00    7.67
    3 O             3.99    3.68    0.01   0.00   0.00   0.00   0.00    7.67

          -------------------------------
          BOND ORDER AND VALENCE ANALYSIS     BOND ORDER THRESHOLD=0.050
          -------------------------------

                   BOND                       BOND                       BOND
  ATOM PAIR DIST  ORDER      ATOM PAIR DIST  ORDER      ATOM PAIR DIST  ORDER
    1   2  2.000  1.036        1   3  2.000  1.036        2   3  3.985  1.425

                       TOTAL       BONDED        FREE
      ATOM            VALENCE     VALENCE     VALENCE
    1 S                 2.071       2.071       0.000
    2 O                 2.460       2.460       0.000
    3 O                 2.460       2.460       0.000

          ---------------------
          ELECTROSTATIC MOMENTS
          ---------------------

 POINT   1           X           Y           Z (BOHR)    CHARGE
                 0.000000    0.000000    0.000000        0.00 (A.U.)
         DX          DY          DZ         /D/  (DEBYE)
     0.000000    0.000000    1.018638    1.018638
 ...... END OF PROPERTY EVALUATION ......
 STEP CPU TIME =     0.01 TOTAL CPU TIME =        0.8 (    0.0 MIN)
 TOTAL WALL CLOCK TIME=        0.8 SECONDS, CPU UTILIZATION IS 100.00%
               580000  WORDS OF DYNAMIC MEMORY USED
 EXECUTION OF GAMESS TERMINATED NORMALLY Thu Feb 26 00:23:17 2015
 DDI: 263624 bytes (0.3 MB / 0 MWords) used by master data server.

 ----------------------------------------
 CPU timing information for all processes
 ========================================
 0: 0.740 + 0.24 = 0.765
 ----------------------------------------
 ddikick.x: exited gracefully.
----- accounting info -----
Files used on the master node dftfe.crc.nd.edu were:
-rw-r--r-- 1 pmehta1 campus   37475 Feb 26 00:23 /tmp/gamess.dat
-rw-r--r-- 1 pmehta1 campus     142 Feb 26 00:23 /tmp/gamess.F05
-rw-r--r-- 1 pmehta1 campus 1800240 Feb 26 00:23 /tmp/gamess.F08
-rw-r--r-- 1 pmehta1 campus 1220440 Feb 26 00:23 /tmp/gamess.F10
Thu Feb 26 00:23:20 EST 2015
0.239u 0.180s 0:04.43 9.2%	0+0k 0+112io 0pf+0w
