----- GAMESS execution script 'rungms' -----
This job is running on host dftfe.crc.nd.edu
under operating system Linux at Thu Feb 26 00:12:56 EST 2015
Available scratch disk space (Kbyte units) at beginning of the job is
Filesystem     1K-blocks     Used Available Use% Mounted on
/dev/sda2      147771864 22810332 117455100  17% /
GAMESS temporary binary files will be written to /tmp
GAMESS supplementary output files will be written to /tmp
Copying input file gamess.inp to your run's scratch directory...

 Distributed Data Interface kickoff program.
 Initiating 1 compute processes on 1 nodes to run the following command:
 /opt/crc/gamess/2012R1/gamess/gamess.00.x gamess 

          ******************************************************
          *         GAMESS VERSION =  1 MAY 2012 (R1)          *
          *             FROM IOWA STATE UNIVERSITY             *
          * M.W.SCHMIDT, K.K.BALDRIDGE, J.A.BOATZ, S.T.ELBERT, *
          *   M.S.GORDON, J.H.JENSEN, S.KOSEKI, N.MATSUNAGA,   *
          *          K.A.NGUYEN, S.J.SU, T.L.WINDUS,           *
          *       TOGETHER WITH M.DUPUIS, J.A.MONTGOMERY       *
          *         J.COMPUT.CHEM.  14, 1347-1363(1993)        *
          **************** 64 BIT LINUX VERSION ****************

  SINCE 1993, STUDENTS AND POSTDOCS WORKING AT IOWA STATE UNIVERSITY
  AND ALSO IN THEIR VARIOUS JOBS AFTER LEAVING ISU HAVE MADE IMPORTANT
  CONTRIBUTIONS TO THE CODE:
     IVANA ADAMOVIC, CHRISTINE AIKENS, YURI ALEXEEV, POOJA ARORA,
     ANDREY ASADCHEV, ROB BELL, PRADIPTA BANDYOPADHYAY, JONATHAN BENTZ,
     BRETT BODE, GALINA CHABAN, WEI CHEN, CHEOL HO CHOI, PAUL DAY,
     ALBERT DEFUSCO, TIM DUDLEY, DMITRI FEDOROV, GRAHAM FLETCHER,
     MARK FREITAG, KURT GLAESEMANN, DAN KEMP, GRANT MERRILL,
     NORIYUKI MINEZAWA, JONATHAN MULLIN, TAKESHI NAGATA,
     SEAN NEDD, HEATHER NETZLOFF, BOSILJKA NJEGIC, RYAN OLSON, MIKE PAK,
     JIM SHOEMAKER, LYUDMILA SLIPCHENKO, SAROM SOK, JIE SONG,
     TETSUYA TAKETSUGU, SIMON WEBB, SOOHAENG YOO, FEDERICO ZAHARIEV

  ADDITIONAL CODE HAS BEEN PROVIDED BY COLLABORATORS IN OTHER GROUPS:
     IOWA STATE UNIVERSITY:
          JOE IVANIC, LAIMUTIS BYTAUTAS, KLAUS RUEDENBERG
     UNIVERSITY OF TOKYO: KIMIHIKO HIRAO, TAKAHITO NAKAJIMA,
          TAKAO TSUNEDA, MUNEAKI KAMIYA, SUSUMU YANAGISAWA,
          KIYOSHI YAGI, MAHITO CHIBA, SEIKEN TOKURA, NAOAKI KAWAKAMI
     UNIVERSITY OF AARHUS: FRANK JENSEN
     UNIVERSITY OF IOWA: VISVALDAS KAIRYS, HUI LI
     NATIONAL INST. OF STANDARDS AND TECHNOLOGY: WALT STEVENS, DAVID GARMER
     UNIVERSITY OF PISA: BENEDETTA MENNUCCI, JACOPO TOMASI
     UNIVERSITY OF MEMPHIS: HENRY KURTZ, PRAKASHAN KORAMBATH
     UNIVERSITY OF ALBERTA: TOBY ZENG, MARIUSZ KLOBUKOWSKI
     UNIVERSITY OF NEW ENGLAND: MARK SPACKMAN
     MIE UNIVERSITY: HIROAKI UMEDA
     MICHIGAN STATE UNIVERSITY:
          KAROL KOWALSKI, MARTA WLOCH, JEFFREY GOUR, JESSE LUTZ, PIOTR PIECUCH
     UNIVERSITY OF SILESIA: MONIKA MUSIAL, STANISLAW KUCHARSKI
     FACULTES UNIVERSITAIRES NOTRE-DAME DE LA PAIX:
          OLIVIER QUINET, BENOIT CHAMPAGNE
     UNIVERSITY OF CALIFORNIA - SANTA BARBARA: BERNARD KIRTMAN
     INSTITUTE FOR MOLECULAR SCIENCE:
          KAZUYA ISHIMURA, MICHIO KATOUDA, AND SHIGERU NAGASE
     UNIVERSITY OF NOTRE DAME: DAN CHIPMAN
     KYUSHU UNIVERSITY:
          HARUYUKI NAKANO,
          FENG LONG GU, JACEK KORCHOWIEC, MARCIN MAKOWSKI, AND YURIKO AOKI,
          HIROTOSHI MORI AND EISAKU MIYOSHI
     PENNSYLVANIA STATE UNIVERSITY:
          TZVETELIN IORDANOV, CHET SWALINA, JONATHAN SKONE,
          SHARON HAMMES-SCHIFFER
     WASEDA UNIVERSITY:
          MASATO KOBAYASHI, TOMOKO AKAMA, TSUGUKI TOUMA,
          TAKESHI YOSHIKAWA, YASUHIRO IKABATA, HIROMI NAKAI
     UNIVERSITY OF NEBRASKA:
          PEIFENG SU, DEJUN SI, NANDUN THELLAMUREGE, YALI WANG, HUI LI
     UNIVERSITY OF ZURICH:
          ROBERTO PEVERATI, KIM BALDRIDGE
     N. COPERNICUS UNIVERSITY AND JACKSON STATE UNIVERSITY:
          MARIA BARYSZ

 EXECUTION OF GAMESS BEGUN Thu Feb 26 00:12:56 2015

            ECHO OF THE FIRST FEW INPUT CARDS -
 INPUT CARD> $BASIS GBASIS=PC1 $END                                                         
 INPUT CARD> $CONTRL COORD=ZMT ISPHER=1 RUNTYP=ENERGY DFTTYP=PBE $END                       
 INPUT CARD>                                                                                
 INPUT CARD> $DATA                                                                          
 INPUT CARD>Title                                                                           
 INPUT CARD>Cnv 2                                                                           
 INPUT CARD>                                                                                
 INPUT CARD>S                                                                               
 INPUT CARD>O 1 1.20                                                                        
 INPUT CARD>O 1 1.20 2 120.0                                                                
 INPUT CARD> $END                                                                           
    1000000 WORDS OF MEMORY AVAILABLE

     BASIS OPTIONS
     -------------
     GBASIS=PC1          IGAUSS=       0      POLAR=NONE    
     NDFUNC=       0     NFFUNC=       0     DIFFSP=       F
     NPFUNC=       0      DIFFS=       F     BASNAM=        


     RUN TITLE
     ---------
 Title                                                                           

 THE POINT GROUP OF THE MOLECULE IS CNV     
 THE ORDER OF THE PRINCIPAL AXIS IS     2

 YOUR FULLY SUBSTITUTED Z-MATRIX IS
 S   
 O      1   1.2000000
 O      1   1.2000000  2  120.0000

 THE MOMENTS OF INERTIA ARE (AMU-ANGSTROM**2)
 IXX=     5.757   IYY=    34.549   IZZ=    40.306

 ATOM      ATOMIC                      COORDINATES (BOHR)
           CHARGE         X                   Y                   Z
 S          16.0     0.0000000000        0.0000000000       -0.5670751211
 O           8.0    -1.9638608539        0.0000000000        0.5667604715
 O           8.0     1.9638608539        0.0000000000        0.5667604715

          INTERNUCLEAR DISTANCES (ANGS.)
          ------------------------------

                1 S          2 O          3 O     

   1 S       0.0000000    1.2000000 *  1.2000000 *
   2 O       1.2000000 *  0.0000000    2.0784610 *
   3 O       1.2000000 *  2.0784610 *  0.0000000  

  * ... LESS THAN  3.000


     ATOMIC BASIS SET
     ----------------
 THE CONTRACTED PRIMITIVE FUNCTIONS HAVE BEEN UNNORMALIZED
 THE CONTRACTED BASIS FUNCTIONS ARE NOW NORMALIZED TO UNITY

  SHELL TYPE  PRIMITIVE        EXPONENT          CONTRACTION COEFFICIENT(S)

 S         

      1   S       1         55510.0000000    0.000587229760
      1   S       2          8326.7000000    0.004532413947
      1   S       3          1895.6000000    0.023265261648
      1   S       4           536.7700000    0.089696133027
      1   S       5           174.6700000    0.254098332277
      1   S       6            62.5780000    0.438665087637
      1   S       7            23.5730000    0.314547135094
      1   S       8             5.8908000    0.032727897102

      2   S       9          8326.7000000   -0.000019755715
      2   S      10          1895.6000000   -0.000043822381
      2   S      11           536.7700000   -0.001730264906
      2   S      12           174.6700000   -0.009381263460
      2   S      13            62.5780000   -0.064050766303
      2   S      14            23.5730000   -0.082478179196
      2   S      15             5.8908000    0.478342956889
      2   S      16             2.1852000    0.626896670208

      3   S      17          1895.6000000    0.000016227260
      3   S      18           536.7700000    0.000191135619
      3   S      19           174.6700000    0.001952069674
      3   S      20            62.5780000    0.010578701087
      3   S      21            23.5730000    0.022164934551
      3   S      22             5.8908000   -0.184968323118
      3   S      23             2.1852000   -0.480920750976
      3   S      24             0.4528200    1.243822243872

      4   S      25             0.1620200    1.000000000000

      5   P      26           395.4500000    0.004642761329
      5   P      27            92.8340000    0.036023396489
      5   P      28            29.2660000    0.149058869978
      5   P      29            10.5950000    0.360033266263
      5   P      30             4.0272000    0.455756476221
      5   P      31             1.5484000    0.206167664178

      6   P      32            92.8340000    0.000169901442
      6   P      33            29.2660000   -0.002541839934
      6   P      34            10.5950000   -0.007867614595
      6   P      35             4.0272000   -0.037231009184
      6   P      36             1.5484000    0.161417246830
      6   P      37             0.4613400    0.902230419976

      7   P      38             0.1313100    1.000000000000

      8   D      39             0.5500000    1.000000000000

 O         

     15   S      40          2306.7000000    0.005424388755
     15   S      41           347.1500000    0.040474749465
     15   S      42            78.8900000    0.180219634554
     15   S      43            21.8760000    0.462370311787
     15   S      44             6.6646000    0.454888396263

     16   S      45           347.1500000   -0.000655003786
     16   S      46            78.8900000   -0.005362052952
     16   S      47            21.8760000   -0.074902158894
     16   S      48             6.6646000   -0.181442579655
     16   S      49             1.0669000    1.102006874042

     17   S      50             0.3070000    1.000000000000

     18   P      51            17.0220000    0.068979967443
     18   P      52             3.6838000    0.351985516325
     18   P      53             0.9923400    0.724036547822

     19   P      54             0.2448700    1.000000000000

     20   D      55             1.0000000    1.000000000000

 TOTAL NUMBER OF BASIS SET SHELLS             =   20
 NUMBER OF CARTESIAN GAUSSIAN BASIS FUNCTIONS =   49
 NOTE: THIS RUN WILL RESTRICT THE MO VARIATION SPACE TO SPHERICAL HARMONICS.
 THE NUMBER OF ORBITALS KEPT IN THE VARIATIONAL SPACE WILL BE PRINTED LATER.
 NUMBER OF ELECTRONS                          =   32
 CHARGE OF MOLECULE                           =    0
 SPIN MULTIPLICITY                            =    1
 NUMBER OF OCCUPIED ORBITALS (ALPHA)          =   16
 NUMBER OF OCCUPIED ORBITALS (BETA )          =   16
 TOTAL NUMBER OF ATOMS                        =    3
 THE NUCLEAR REPULSION ENERGY IS      129.1855799604

     LEBEDEV GRID-BASED DFT OPTIONS
     ------------------------------
     DFTTYP=PBE     
     NRAD  =      96     NLEB  =     302
     NRAD0 =      24     NLEB0 =     110
     SWOFF =    5.00E-03 (PURE SCF -> DFT)
     SWITCH=    3.00E-04 (COARSE -> TIGHT GRID)
     THRESH=    0.00E+00 GTHRE=    1.00E+00

 GRIMME'S EMPIRICAL DISPERSION CORRECTION= F

     $CONTRL OPTIONS
     ---------------
 SCFTYP=RHF          RUNTYP=ENERGY       EXETYP=RUN     
 MPLEVL=       0     CITYP =NONE         CCTYP =NONE         VBTYP =NONE    
 DFTTYP=PBE          TDDFT =NONE    
 MULT  =       1     ICHARG=       0     NZVAR =       0     COORD =ZMT     
 PP    =NONE         RELWFN=NONE         LOCAL =NONE         NUMGRD=       F
 ISPHER=       1     NOSYM =       0     MAXIT =      30     UNITS =ANGS    
 PLTORB=       F     MOLPLT=       F     AIMPAC=       F     FRIEND=        
 NPRINT=       7     IREST =       0     GEOM  =INPUT   
 NORMF =       0     NORMP =       0     ITOL  =      20     ICUT  =       9
 INTTYP=BEST         GRDTYP=BEST         QMTTOL= 1.0E-06

     $SYSTEM OPTIONS
     ---------------
  REPLICATED MEMORY=     1000000 WORDS (ON EVERY NODE).
 DISTRIBUTED MEMDDI=           0 MILLION WORDS IN AGGREGATE,
 MEMDDI DISTRIBUTED OVER   1 PROCESSORS IS           0 WORDS/PROCESSOR.
 TOTAL MEMORY REQUESTED ON EACH PROCESSOR=     1000000 WORDS.
 TIMLIM=      525600.00 MINUTES, OR     365.0 DAYS.
 PARALL= F  BALTYP=  DLB     KDIAG=    0  COREFL= F
 MXSEQ2=     300 MXSEQ3=     150

          ----------------
          PROPERTIES INPUT
          ----------------

     MOMENTS            FIELD           POTENTIAL          DENSITY
 IEMOM =       1   IEFLD =       0   IEPOT =       0   IEDEN =       0
 WHERE =COMASS     WHERE =NUCLEI     WHERE =NUCLEI     WHERE =NUCLEI  
 OUTPUT=BOTH       OUTPUT=BOTH       OUTPUT=BOTH       OUTPUT=BOTH    
 IEMINT=       0   IEFINT=       0                     IEDINT=       0
                                                       MORB  =       0
          EXTRAPOLATION IN EFFECT
          DIIS IN EFFECT
 ORBITAL PRINTING OPTION: NPREO=     1    49     2     1

     -------------------------------
     INTEGRAL TRANSFORMATION OPTIONS
     -------------------------------
     NWORD  =            0
     CUTOFF = 1.0E-09     MPTRAN =       0
     DIRTRF =       F     AOINTS =DUP     

          ----------------------
          INTEGRAL INPUT OPTIONS
          ----------------------
 NOPK  =       1 NORDER=       0 SCHWRZ=       F

   --- ENCODED Z MATRIX ---
 COORD  TYPE   I   J   K   L   M   N
    1      1    3   1
    2      1    2   1
    3      2    2   1   3

 THE DETERMINANT OF THE G MATRIX IS 10**(    -4)

 THE DETERMINANT OF THE G MATRIX IS 10**(    -4)
 * * * WARNING * * *
 YOUR B MATRIX HAS A SMALL DETERMINANT.
 THIS SUGGESTS YOU MAY HAVE BADLY CHOSEN COORDINATES.

     ------------------------------------------
     THE POINT GROUP IS CNV, NAXIS= 2, ORDER= 4
     ------------------------------------------

 -- VARIATIONAL SPACE WILL BE RESTRICTED TO PURE SPHERICAL HARMONICS ONLY --
 AFTER EXCLUDING CONTAMINANT COMBINATIONS FROM THE CARTESIAN GAUSSIAN BASIS
 SET, THE NUMBER OF SPHERICAL HARMONICS KEPT IN THE VARIATION SPACE IS   46

     DIMENSIONS OF THE SYMMETRY SUBSPACES ARE
 A1  =   19     A2  =    5     B1  =   14     B2  =    8

 ..... DONE SETTING UP THE RUN .....
 STEP CPU TIME =     0.00 TOTAL CPU TIME =        0.0 (    0.0 MIN)
 TOTAL WALL CLOCK TIME=        0.0 SECONDS, CPU UTILIZATION IS   0.00%

          ********************
          1 ELECTRON INTEGRALS
          ********************
 ...... END OF ONE-ELECTRON INTEGRALS ......
 STEP CPU TIME =     0.00 TOTAL CPU TIME =        0.0 (    0.0 MIN)
 TOTAL WALL CLOCK TIME=        0.0 SECONDS, CPU UTILIZATION IS   0.00%

          -------------
          GUESS OPTIONS
          -------------
          GUESS =HUCKEL            NORB  =       0          NORDER=       0
          MIX   =       F          PRTMO =       F          PUNMO =       F
          TOLZ  = 1.0E-08          TOLE  = 1.0E-05
          SYMDEN=       F          PURIFY=       F

 INITIAL GUESS ORBITALS GENERATED BY HUCKEL   ROUTINE.
 HUCKEL GUESS REQUIRES     21583 WORDS.

 STATISTICS FOR GENERATION OF SYMMETRY ORBITAL -Q- MATRIX
 NUMBER OF CARTESIAN ATOMIC ORBITALS=         49
 NUMBER OF SPHERICAL CONTAMINANTS DROPPED=     3
 NUMBER OF LINEARLY DEPENDENT MOS DROPPED=     0
 TOTAL NUMBER OF MOS IN VARIATION SPACE=      46

 SYMMETRIES FOR INITIAL GUESS ORBITALS FOLLOW.   BOTH SET(S).
    16 ORBITALS ARE OCCUPIED (    7 CORE ORBITALS).
     8=?A1      9=?B1     10=A1      11=B2      12=A1      13=B1      14=A2  
    15=B1      16=A1      17=B2      18=B1      19=A1      20=A1      21=A1  
    22=A1      23=A1      24=A1      25=A1      26=A1  
 ...... END OF INITIAL ORBITAL SELECTION ......
 STEP CPU TIME =     0.01 TOTAL CPU TIME =        0.0 (    0.0 MIN)
 TOTAL WALL CLOCK TIME=        0.0 SECONDS, CPU UTILIZATION IS  50.00%

                    ----------------------
                    AO INTEGRAL TECHNOLOGY
                    ----------------------
     S,P,L SHELL ROTATED AXIS INTEGRALS, REPROGRAMMED BY
        KAZUYA ISHIMURA (IMS) AND JOSE SIERRA (SYNSTAR).
     S,P,D,L SHELL ROTATED AXIS INTEGRALS PROGRAMMED BY
        KAZUYA ISHIMURA (INSTITUTE FOR MOLECULAR SCIENCE).
     S,P,D,F,G SHELL TO TOTAL QUARTET ANGULAR MOMENTUM SUM 5,
        ERIC PROGRAM BY GRAHAM FLETCHER (ELORET AND NASA ADVANCED
        SUPERCOMPUTING DIVISION, AMES RESEARCH CENTER).
     S,P,D,F,G,L SHELL GENERAL RYS QUADRATURE PROGRAMMED BY
        MICHEL DUPUIS (PACIFIC NORTHWEST NATIONAL LABORATORY).

          --------------------
          2 ELECTRON INTEGRALS
          --------------------

 THE -PK- OPTION IS OFF, THE INTEGRALS ARE NOT IN SUPERMATRIX FORM.
 STORING   15000 INTEGRALS/RECORD ON DISK, USING 12 BYTES/INTEGRAL.
 TWO ELECTRON INTEGRAL EVALUATION REQUIRES   90606 WORDS OF MEMORY.
 II,JST,KST,LST =  1  1  1  1 NREC =         1 INTLOC =    1
 II,JST,KST,LST =  2  1  1  1 NREC =         1 INTLOC =    2
 II,JST,KST,LST =  3  1  1  1 NREC =         1 INTLOC =    7
 II,JST,KST,LST =  4  1  1  1 NREC =         1 INTLOC =   22
 II,JST,KST,LST =  5  1  1  1 NREC =         1 INTLOC =   56
 II,JST,KST,LST =  6  1  1  1 NREC =         1 INTLOC =  125
 II,JST,KST,LST =  7  1  1  1 NREC =         1 INTLOC =  329
 II,JST,KST,LST =  8  1  1  1 NREC =         1 INTLOC =  776
 II,JST,KST,LST =  9  1  1  1 NREC =         1 INTLOC = 2864
 II,JST,KST,LST = 10  1  1  1 NREC =         1 INTLOC = 2864
 II,JST,KST,LST = 11  1  1  1 NREC =         1 INTLOC = 2864
 II,JST,KST,LST = 12  1  1  1 NREC =         1 INTLOC = 2864
 II,JST,KST,LST = 13  1  1  1 NREC =         1 INTLOC = 2864
 II,JST,KST,LST = 14  1  1  1 NREC =         1 INTLOC = 2864
 II,JST,KST,LST = 15  1  1  1 NREC =         1 INTLOC = 2864
 II,JST,KST,LST = 16  1  1  1 NREC =         1 INTLOC = 5171
 II,JST,KST,LST = 17  1  1  1 NREC =         1 INTLOC = 8525
 II,JST,KST,LST = 18  1  1  1 NREC =         1 INTLOC =13007
 II,JST,KST,LST = 19  1  1  1 NREC =         3 INTLOC = 1467
 II,JST,KST,LST = 20  1  1  1 NREC =         5 INTLOC = 2964
 TOTAL NUMBER OF NONZERO TWO-ELECTRON INTEGRALS =              182829
         13 INTEGRAL RECORDS WERE STORED ON DISK FILE  8.
  ...... END OF TWO-ELECTRON INTEGRALS .....
 STEP CPU TIME =     0.17 TOTAL CPU TIME =        0.2 (    0.0 MIN)
 TOTAL WALL CLOCK TIME=        0.2 SECONDS, CPU UTILIZATION IS  94.74%

          --------------------------
               R-PBE SCF CALCULATION
          --------------------------

     NUCLEAR ENERGY =       129.1855799604
     MAXIT =   30     NPUNCH=    2
     EXTRAP=T  DAMP=F  SHIFT=F  RSTRCT=F  DIIS=T  DEM=F  SOSCF=F
         DENSITY MATRIX CONVERGENCE THRESHOLD=  1.00E-05
     COARSE -> FINE DFT GRID SWITCH THRESHOLD=  3.00E-04 (SWITCH IN $DFT)
                   HF -> DFT SWITCH THRESHOLD=  5.00E-03 (SWOFF IN $DFT)
     MEMORY REQUIRED FOR RHF ITERS=    183108 WORDS.

 DFT CODE IS SWITCHING FROM THE FINE GRID NRAD= 96,  NLEB=  302
                      TO THE COARSE GRID NRAD0= 24, NLEB0=  110

     EXCHANGE FUNCTIONAL   =PBE       
     CORRELATION FUNCTIONAL=PBE       
     DFT THRESHOLD         =.460E-07
     GRID CHANGE THRESHOLD =.300E-03
 FOR AN EULER-MACLAURIN QUADRATURE USING  96 RADIAL POINTS:
 SMALLEST GAUSSIAN PRIMITIVE EXPONENT=        0.1313100000 OF TYPE -P-
 ON ATOM NUMBER   1 HAS RADIAL NORMALIZATION=  1.000000
  LARGEST GAUSSIAN PRIMITIVE EXPONENT=    55510.0000000000 OF TYPE -S-
 ON ATOM NUMBER   1 HAS RADIAL NORMALIZATION=  0.999999
 DFT IS SWITCHED OFF, PERFORMING PURE SCF UNTIL SWOFF THRESHOLD IS REACHED.

 ITER EX DEM     TOTAL ENERGY        E CHANGE  DENSITY CHANGE    DIIS ERROR
   1  0  0     -545.6450814246  -545.6450814246   0.404360518   1.221817535
          * * *   INITIATING DIIS PROCEDURE   * * *
   2  1  0     -546.7847857960    -1.1397043714   0.562329877   0.172215589
   3  2  0     -546.8633368538    -0.0785510578   0.056544428   0.083685336
   4  3  0     -546.8812479212    -0.0179110674   0.063548231   0.015323922
   5  4  0     -546.8823725033    -0.0011245821   0.031443019   0.005202503
   6  5  0     -546.8825076584    -0.0001351551   0.006924105   0.001243315
   7  6  0     -546.8825184084    -0.0000107500   0.000117359   0.000111930
 CONVERGED TO SWOFF, SO DFT CALCULATION IS NOW SWITCHED ON.
 DFT CODE IS SWITCHING BACK TO THE FINE GRID
          * * *   INITIATING DIIS PROCEDURE   * * *
   8  7  0     -547.9218049756    -1.0392865672   0.129591321   0.088407481
   9  8  0     -547.9383814875    -0.0165765120   0.096302997   0.038066306
  10  9  0     -547.9376418442     0.0007396433   0.033085182   0.041507990
  11 10  0     -547.9424086732    -0.0047668289   0.011154347   0.006839477
  12 11  0     -547.9424954639    -0.0000867907   0.000610862   0.000528259
  13 12  0     -547.9424958766    -0.0000004127   0.000043519   0.000020880
  14 13  0     -547.9424958778    -0.0000000012   0.000007875   0.000003349
  15 14  0     -547.9424958778     0.0000000000   0.000002145   0.000000728

          -----------------
          DENSITY CONVERGED
          -----------------
     TIME TO FORM FOCK OPERATORS=       4.2 SECONDS (       0.3 SEC/ITER)
     TIME TO SOLVE SCF EQUATIONS=       0.0 SECONDS (       0.0 SEC/ITER)

 FINAL R-PBE ENERGY IS     -547.9424958778 AFTER  15 ITERATIONS
 DFT EXCHANGE + CORRELATION ENERGY =       -43.0766401144
 TOTAL ELECTRON NUMBER             =        32.0000005991

          ------------
          EIGENVECTORS
          ------------

                      1          2          3          4          5
                  -88.1480   -18.7552   -18.7552    -7.8064    -5.8282
                     A1         B1         A1         A1         B1  
    1  S  1  S    1.002983   0.000000  -0.000083  -0.273764   0.000000
    2  S  1  S   -0.010146   0.000000   0.000343   1.039245   0.000000
    3  S  1  S    0.002094   0.000000  -0.000948   0.043763   0.000000
    4  S  1  S   -0.000370   0.000000   0.012306  -0.008231   0.000000
    5  S  1  X    0.000000  -0.000420   0.000000   0.000000   0.994435
    6  S  1  Y    0.000000   0.000000   0.000000   0.000000   0.000000
    7  S  1  Z    0.000045   0.000000   0.000017   0.014917   0.000000
    8  S  1  X    0.000000   0.001656   0.000000   0.000000   0.013523
    9  S  1  Y    0.000000   0.000000   0.000000   0.000000   0.000000
   10  S  1  Z    0.000267   0.000000   0.000470   0.003209   0.000000
   11  S  1  X    0.000000  -0.005122   0.000000   0.000000  -0.000091
   12  S  1  Y    0.000000   0.000000   0.000000   0.000000   0.000000
   13  S  1  Z    0.000036   0.000000   0.004864  -0.000104   0.000000
   14  S  1 XX    0.000240   0.000000  -0.001286   0.002277   0.000000
   15  S  1 YY   -0.000162   0.000000   0.000472  -0.001392   0.000000
   16  S  1 ZZ   -0.000079   0.000000   0.000814  -0.000885   0.000000
   17  S  1 XY    0.000000   0.000000   0.000000   0.000000   0.000000
   18  S  1 XZ    0.000000   0.002598   0.000000   0.000000   0.003125
   19  S  1 YZ    0.000000   0.000000   0.000000   0.000000   0.000000
   20  O  2  S    0.000008   0.703180   0.703199  -0.001142   0.002211
   21  O  2  S   -0.000031   0.027169   0.026970   0.000380  -0.002272
   22  O  2  S   -0.000401  -0.012102  -0.014987  -0.002479   0.001290
   23  O  2  X   -0.000135   0.002080   0.001477   0.000777  -0.002949
   24  O  2  Y    0.000000   0.000000   0.000000   0.000000   0.000000
   25  O  2  Z    0.000087  -0.001127  -0.000809  -0.000370   0.002195
   26  O  2  X   -0.000267  -0.001506  -0.003442  -0.002288   0.000839
   27  O  2  Y    0.000000   0.000000   0.000000   0.000000   0.000000
   28  O  2  Z    0.000198   0.001822   0.000637   0.001720  -0.000282
   29  O  2 XX   -0.000038   0.000320  -0.000044   0.000972  -0.000872
   30  O  2 YY    0.000054   0.000013  -0.000218  -0.000615   0.001085
   31  O  2 ZZ   -0.000015  -0.000333   0.000263  -0.000357  -0.000213
   32  O  2 XY    0.000000   0.000000   0.000000   0.000000   0.000000
   33  O  2 XZ    0.000084  -0.000284  -0.000183  -0.000924   0.001730
   34  O  2 YZ    0.000000   0.000000   0.000000   0.000000   0.000000
   35  O  3  S    0.000008  -0.703180   0.703199  -0.001142  -0.002211
   36  O  3  S   -0.000031  -0.027169   0.026970   0.000380   0.002272
   37  O  3  S   -0.000401   0.012102  -0.014987  -0.002479  -0.001290
   38  O  3  X    0.000135   0.002080  -0.001477  -0.000777  -0.002949
   39  O  3  Y    0.000000   0.000000   0.000000   0.000000   0.000000
   40  O  3  Z    0.000087   0.001127  -0.000809  -0.000370  -0.002195
   41  O  3  X    0.000267  -0.001506   0.003442   0.002288   0.000839
   42  O  3  Y    0.000000   0.000000   0.000000   0.000000   0.000000
   43  O  3  Z    0.000198  -0.001822   0.000637   0.001720   0.000282
   44  O  3 XX   -0.000038  -0.000320  -0.000044   0.000972   0.000872
   45  O  3 YY    0.000054  -0.000013  -0.000218  -0.000615  -0.001085
   46  O  3 ZZ   -0.000015   0.000333   0.000263  -0.000357   0.000213
   47  O  3 XY    0.000000   0.000000   0.000000   0.000000   0.000000
   48  O  3 XZ   -0.000084  -0.000284   0.000183   0.000924   0.001730
   49  O  3 YZ    0.000000   0.000000   0.000000   0.000000   0.000000

                      6          7          8          9         10
                   -5.8213    -5.8153    -1.1943    -1.0607    -0.5335
                     B2         A1         A1         B1         A1  
    1  S  1  S    0.000000   0.004602   0.060448   0.000000  -0.047117
    2  S  1  S    0.000000  -0.017257  -0.186711   0.000000   0.132089
    3  S  1  S    0.000000   0.001105   0.318697   0.000000  -0.297167
    4  S  1  S    0.000000   0.000148   0.078816   0.000000  -0.278029
    5  S  1  X    0.000000   0.000000   0.000000  -0.200047   0.000000
    6  S  1  Y    0.996237   0.000000   0.000000   0.000000   0.000000
    7  S  1  Z    0.000000   0.995714  -0.095188   0.000000  -0.145415
    8  S  1  X    0.000000   0.000000   0.000000   0.337005   0.000000
    9  S  1  Y    0.010787   0.000000   0.000000   0.000000   0.000000
   10  S  1  Z    0.000000   0.010998   0.146959   0.000000   0.316248
   11  S  1  X    0.000000   0.000000   0.000000   0.013482   0.000000
   12  S  1  Y   -0.000636   0.000000   0.000000   0.000000   0.000000
   13  S  1  Z    0.000000  -0.000325  -0.012132   0.000000   0.134034
   14  S  1 XX    0.000000  -0.000585   0.052392   0.000000  -0.062447
   15  S  1 YY    0.000000  -0.000992  -0.042355   0.000000  -0.020244
   16  S  1 ZZ    0.000000   0.001577  -0.010038   0.000000   0.082691
   17  S  1 XY    0.000000   0.000000   0.000000   0.000000   0.000000
   18  S  1 XZ    0.000000   0.000000   0.000000   0.104809   0.000000
   19  S  1 YZ    0.001233   0.000000   0.000000   0.000000   0.000000
   20  O  2  S    0.000000  -0.001217  -0.125324   0.147955  -0.058585
   21  O  2  S    0.000000   0.001660   0.236020  -0.275957   0.120062
   22  O  2  S    0.000000  -0.000248   0.220229  -0.262791   0.211264
   23  O  2  X    0.000000   0.002315   0.142473  -0.122378   0.000117
   24  O  2  Y    0.000597   0.000000   0.000000   0.000000   0.000000
   25  O  2  Z    0.000000  -0.000797  -0.067302   0.085918   0.271053
   26  O  2  X    0.000000  -0.000489   0.033444  -0.015482   0.002299
   27  O  2  Y   -0.000235   0.000000   0.000000   0.000000   0.000000
   28  O  2  Z    0.000000  -0.000182  -0.010877   0.016280   0.129398
   29  O  2 XX    0.000000   0.000935   0.015750  -0.009184   0.007529
   30  O  2 YY    0.000000  -0.000480  -0.009061   0.009735   0.003730
   31  O  2 ZZ    0.000000  -0.000455  -0.006689  -0.000550  -0.011259
   32  O  2 XY    0.000429   0.000000   0.000000   0.000000   0.000000
   33  O  2 XZ    0.000000  -0.000716  -0.015390   0.017249   0.014909
   34  O  2 YZ   -0.000345   0.000000   0.000000   0.000000   0.000000
   35  O  3  S    0.000000  -0.001217  -0.125324  -0.147955  -0.058585
   36  O  3  S    0.000000   0.001660   0.236020   0.275957   0.120062
   37  O  3  S    0.000000  -0.000248   0.220229   0.262791   0.211264
   38  O  3  X    0.000000  -0.002315  -0.142473  -0.122378  -0.000117
   39  O  3  Y    0.000597   0.000000   0.000000   0.000000   0.000000
   40  O  3  Z    0.000000  -0.000797  -0.067302  -0.085918   0.271053
   41  O  3  X    0.000000   0.000489  -0.033444  -0.015482  -0.002299
   42  O  3  Y   -0.000235   0.000000   0.000000   0.000000   0.000000
   43  O  3  Z    0.000000  -0.000182  -0.010877  -0.016280   0.129398
   44  O  3 XX    0.000000   0.000935   0.015750   0.009184   0.007529
   45  O  3 YY    0.000000  -0.000480  -0.009061  -0.009735   0.003730
   46  O  3 ZZ    0.000000  -0.000455  -0.006689   0.000550  -0.011259
   47  O  3 XY   -0.000429   0.000000   0.000000   0.000000   0.000000
   48  O  3 XZ    0.000000   0.000716   0.015390   0.017249  -0.014909
   49  O  3 YZ   -0.000345   0.000000   0.000000   0.000000   0.000000

                     11         12         13         14         15
                   -0.5283    -0.4877    -0.4367    -0.3774    -0.3354
                     B2         A1         B1         A2         B1  
    1  S  1  S    0.000000   0.027528   0.000000   0.000000   0.000000
    2  S  1  S    0.000000  -0.060247   0.000000   0.000000   0.000000
    3  S  1  S    0.000000   0.193400   0.000000   0.000000   0.000000
    4  S  1  S    0.000000  -0.029608   0.000000   0.000000   0.000000
    5  S  1  X    0.000000   0.000000  -0.159659   0.000000   0.002655
    6  S  1  Y   -0.207187   0.000000   0.000000   0.000000   0.000000
    7  S  1  Z    0.000000  -0.117180   0.000000   0.000000   0.000000
    8  S  1  X    0.000000   0.000000   0.338084   0.000000  -0.000189
    9  S  1  Y    0.458896   0.000000   0.000000   0.000000   0.000000
   10  S  1  Z    0.000000   0.253286   0.000000   0.000000   0.000000
   11  S  1  X    0.000000   0.000000  -0.014320   0.000000   0.105812
   12  S  1  Y    0.151794   0.000000   0.000000   0.000000   0.000000
   13  S  1  Z    0.000000   0.017645   0.000000   0.000000   0.000000
   14  S  1 XX    0.000000  -0.086192   0.000000   0.000000   0.000000
   15  S  1 YY    0.000000   0.007591   0.000000   0.000000   0.000000
   16  S  1 ZZ    0.000000   0.078600   0.000000   0.000000   0.000000
   17  S  1 XY    0.000000   0.000000   0.000000  -0.179653   0.000000
   18  S  1 XZ    0.000000   0.000000   0.018759   0.000000  -0.161790
   19  S  1 YZ    0.074687   0.000000   0.000000   0.000000   0.000000
   20  O  2  S    0.000000   0.081348  -0.067910   0.000000  -0.002324
   21  O  2  S    0.000000  -0.164209   0.140396   0.000000  -0.005179
   22  O  2  S    0.000000  -0.282751   0.283882   0.000000   0.004358
   23  O  2  X    0.000000   0.349443  -0.263618   0.000000   0.371829
   24  O  2  Y    0.331071   0.000000   0.000000   0.460144   0.000000
   25  O  2  Z    0.000000   0.062734   0.303168   0.000000   0.300765
   26  O  2  X    0.000000   0.192670  -0.125616   0.000000   0.222243
   27  O  2  Y    0.169851   0.000000   0.000000   0.298304   0.000000
   28  O  2  Z    0.000000   0.035058   0.168383   0.000000   0.208767
   29  O  2 XX    0.000000   0.021639  -0.006184   0.000000   0.031022
   30  O  2 YY    0.000000  -0.009522   0.013320   0.000000  -0.005412
   31  O  2 ZZ    0.000000  -0.012117  -0.007136   0.000000  -0.025610
   32  O  2 XY    0.026630   0.000000   0.000000   0.023836   0.000000
   33  O  2 XZ    0.000000  -0.004578   0.023340   0.000000   0.006271
   34  O  2 YZ   -0.014670   0.000000   0.000000  -0.013383   0.000000
   35  O  3  S    0.000000   0.081348   0.067910   0.000000   0.002324
   36  O  3  S    0.000000  -0.164209  -0.140396   0.000000   0.005179
   37  O  3  S    0.000000  -0.282751  -0.283882   0.000000  -0.004358
   38  O  3  X    0.000000  -0.349443  -0.263618   0.000000   0.371829
   39  O  3  Y    0.331071   0.000000   0.000000  -0.460144   0.000000
   40  O  3  Z    0.000000   0.062734  -0.303168   0.000000  -0.300765
   41  O  3  X    0.000000  -0.192670  -0.125616   0.000000   0.222243
   42  O  3  Y    0.169851   0.000000   0.000000  -0.298304   0.000000
   43  O  3  Z    0.000000   0.035058  -0.168383   0.000000  -0.208767
   44  O  3 XX    0.000000   0.021639   0.006184   0.000000  -0.031022
   45  O  3 YY    0.000000  -0.009522  -0.013320   0.000000   0.005412
   46  O  3 ZZ    0.000000  -0.012117   0.007136   0.000000   0.025610
   47  O  3 XY   -0.026630   0.000000   0.000000   0.023836   0.000000
   48  O  3 XZ    0.000000   0.004578   0.023340   0.000000   0.006271
   49  O  3 YZ   -0.014670   0.000000   0.000000   0.013383   0.000000

                     16         17         18         19         20
                   -0.2596    -0.0661     0.1197     0.1451     0.3366
                     A1         B2         A1         B1         B2  
    1  S  1  S    0.022428   0.000000   0.004614   0.000000   0.000000
    2  S  1  S   -0.115533   0.000000  -0.134351   0.000000   0.000000
    3  S  1  S    0.088398   0.000000  -0.110610   0.000000   0.000000
    4  S  1  S    0.836435   0.000000   1.684801   0.000000   0.000000
    5  S  1  X    0.000000   0.000000   0.000000  -0.072620   0.000000
    6  S  1  Y    0.000000  -0.198135   0.000000   0.000000   0.295838
    7  S  1  Z    0.150878   0.000000  -0.069068   0.000000   0.000000
    8  S  1  X    0.000000   0.000000   0.000000   0.214173   0.000000
    9  S  1  Y    0.000000   0.522853   0.000000   0.000000  -1.118110
   10  S  1  Z   -0.330745   0.000000   0.229403   0.000000   0.000000
   11  S  1  X    0.000000   0.000000   0.000000   1.631171   0.000000
   12  S  1  Y    0.000000   0.745790   0.000000   0.000000   1.173689
   13  S  1  Z   -0.156804   0.000000   1.324687   0.000000   0.000000
   14  S  1 XX   -0.188019   0.000000  -0.112637   0.000000   0.000000
   15  S  1 YY    0.083706   0.000000   0.269302   0.000000   0.000000
   16  S  1 ZZ    0.104312   0.000000  -0.156665   0.000000   0.000000
   17  S  1 XY    0.000000   0.000000   0.000000   0.000000   0.000000
   18  S  1 XZ    0.000000   0.000000   0.000000  -0.183137   0.000000
   19  S  1 YZ    0.000000  -0.131366   0.000000   0.000000  -0.116164
   20  O  2  S    0.022598   0.000000   0.067679  -0.061880   0.000000
   21  O  2  S   -0.037629   0.000000  -0.085605   0.075090   0.000000
   22  O  2  S   -0.148070   0.000000  -0.924681   0.861518   0.000000
   23  O  2  X   -0.086549   0.000000  -0.174317  -0.064579   0.000000
   24  O  2  Y    0.000000  -0.357594   0.000000   0.000000   0.021293
   25  O  2  Z    0.347959   0.000000  -0.087791  -0.223149   0.000000
   26  O  2  X   -0.060544   0.000000  -0.411812  -0.051899   0.000000
   27  O  2  Y    0.000000  -0.407257   0.000000   0.000000  -0.019538
   28  O  2  Z    0.269357   0.000000  -0.130590  -0.313842   0.000000
   29  O  2 XX   -0.009335   0.000000  -0.017729   0.005582   0.000000
   30  O  2 YY    0.009353   0.000000   0.023244  -0.004862   0.000000
   31  O  2 ZZ   -0.000018   0.000000  -0.005516  -0.000720   0.000000
   32  O  2 XY    0.000000  -0.006085   0.000000   0.000000  -0.037314
   33  O  2 XZ    0.018541   0.000000   0.009711  -0.015848   0.000000
   34  O  2 YZ    0.000000  -0.002107   0.000000   0.000000   0.016206
   35  O  3  S    0.022598   0.000000   0.067679   0.061880   0.000000
   36  O  3  S   -0.037629   0.000000  -0.085605  -0.075090   0.000000
   37  O  3  S   -0.148070   0.000000  -0.924681  -0.861518   0.000000
   38  O  3  X    0.086549   0.000000   0.174317  -0.064579   0.000000
   39  O  3  Y    0.000000  -0.357594   0.000000   0.000000   0.021293
   40  O  3  Z    0.347959   0.000000  -0.087791   0.223149   0.000000
   41  O  3  X    0.060544   0.000000   0.411812  -0.051899   0.000000
   42  O  3  Y    0.000000  -0.407257   0.000000   0.000000  -0.019538
   43  O  3  Z    0.269357   0.000000  -0.130590   0.313842   0.000000
   44  O  3 XX   -0.009335   0.000000  -0.017729  -0.005582   0.000000
   45  O  3 YY    0.009353   0.000000   0.023244   0.004862   0.000000
   46  O  3 ZZ   -0.000018   0.000000  -0.005516   0.000720   0.000000
   47  O  3 XY    0.000000   0.006085   0.000000   0.000000   0.037314
   48  O  3 XZ   -0.018541   0.000000  -0.009711  -0.015848   0.000000
   49  O  3 YZ    0.000000  -0.002107   0.000000   0.000000   0.016206

                     21         22         23         24         25
                    0.3851     0.4702     0.4943     0.5987     0.6284
                     A1         A1         B1         B2         A1  
    1  S  1  S   -0.049411  -0.067204   0.000000   0.000000   0.083935
    2  S  1  S   -0.158298  -0.133651   0.000000   0.000000   0.381267
    3  S  1  S   -0.734589  -0.888913   0.000000   0.000000   1.403884
    4  S  1  S    0.898474   2.603908   0.000000   0.000000   0.334598
    5  S  1  X    0.000000   0.000000   0.155441   0.000000   0.000000
    6  S  1  Y    0.000000   0.000000   0.000000   0.014339   0.000000
    7  S  1  Z   -0.274928   0.021097   0.000000   0.000000  -0.112665
    8  S  1  X    0.000000   0.000000  -0.328385   0.000000   0.000000
    9  S  1  Y    0.000000   0.000000   0.000000  -0.084832   0.000000
   10  S  1  Z    1.040527   0.085297   0.000000   0.000000   0.623046
   11  S  1  X    0.000000   0.000000   1.048922   0.000000   0.000000
   12  S  1  Y    0.000000   0.000000   0.000000   0.323206   0.000000
   13  S  1  Z   -0.885220   0.471180   0.000000   0.000000   0.248004
   14  S  1 XX   -0.232236   0.560870   0.000000   0.000000  -0.127900
   15  S  1 YY    0.204571  -0.579077   0.000000   0.000000  -0.292235
   16  S  1 ZZ    0.027666   0.018207   0.000000   0.000000   0.420135
   17  S  1 XY    0.000000   0.000000   0.000000   0.000000   0.000000
   18  S  1 XZ    0.000000   0.000000   0.749898   0.000000   0.000000
   19  S  1 YZ    0.000000   0.000000   0.000000   0.967281   0.000000
   20  O  2  S    0.009378   0.027281  -0.018244   0.000000   0.052159
   21  O  2  S   -0.056616   0.008175  -0.032714   0.000000  -0.074164
   22  O  2  S    0.015789  -1.050999   0.837221   0.000000  -0.614125
   23  O  2  X   -0.060754   0.260744  -0.214629   0.000000   0.132533
   24  O  2  Y    0.000000   0.000000   0.000000  -0.301666   0.000000
   25  O  2  Z   -0.016357  -0.185186   0.206693   0.000000  -0.013170
   26  O  2  X   -0.088433  -0.513644   0.564974   0.000000  -1.011628
   27  O  2  Y    0.000000   0.000000   0.000000  -0.078068   0.000000
   28  O  2  Z   -0.026617   0.440058  -0.149593   0.000000   0.206251
   29  O  2 XX    0.022712  -0.037890   0.013186   0.000000   0.033807
   30  O  2 YY    0.008277   0.016486  -0.030774   0.000000  -0.018978
   31  O  2 ZZ   -0.030989   0.021405   0.017588   0.000000  -0.014828
   32  O  2 XY    0.000000   0.000000   0.000000   0.039319   0.000000
   33  O  2 XZ    0.018036   0.048956  -0.044824   0.000000   0.004200
   34  O  2 YZ    0.000000   0.000000   0.000000   0.044142   0.000000
   35  O  3  S    0.009378   0.027281   0.018244   0.000000   0.052159
   36  O  3  S   -0.056616   0.008175   0.032714   0.000000  -0.074164
   37  O  3  S    0.015789  -1.050999  -0.837221   0.000000  -0.614125
   38  O  3  X    0.060754  -0.260744  -0.214629   0.000000  -0.132533
   39  O  3  Y    0.000000   0.000000   0.000000  -0.301666   0.000000
   40  O  3  Z   -0.016357  -0.185186  -0.206693   0.000000  -0.013170
   41  O  3  X    0.088433   0.513644   0.564974   0.000000   1.011628
   42  O  3  Y    0.000000   0.000000   0.000000  -0.078068   0.000000
   43  O  3  Z   -0.026617   0.440058   0.149593   0.000000   0.206251
   44  O  3 XX    0.022712  -0.037890  -0.013186   0.000000   0.033807
   45  O  3 YY    0.008277   0.016486   0.030774   0.000000  -0.018978
   46  O  3 ZZ   -0.030989   0.021405  -0.017588   0.000000  -0.014828
   47  O  3 XY    0.000000   0.000000   0.000000  -0.039319   0.000000
   48  O  3 XZ   -0.018036  -0.048956  -0.044824   0.000000  -0.004200
   49  O  3 YZ    0.000000   0.000000   0.000000   0.044142   0.000000

                     26         27         28         29         30
                    0.6534     0.6870     0.6876     0.7605     0.7730
                     B1         A1         A2         A2         A1  
    1  S  1  S    0.000000  -0.017519   0.000000   0.000000   0.039774
    2  S  1  S    0.000000  -0.189737   0.000000   0.000000   0.192540
    3  S  1  S    0.000000  -0.429214   0.000000   0.000000   0.680506
    4  S  1  S    0.000000  -0.173366   0.000000   0.000000  -0.366930
    5  S  1  X   -0.240251   0.000000   0.000000   0.000000   0.000000
    6  S  1  Y    0.000000   0.000000   0.000000   0.000000   0.000000
    7  S  1  Z    0.000000   0.004925   0.000000   0.000000  -0.079887
    8  S  1  X    1.293443   0.000000   0.000000   0.000000   0.000000
    9  S  1  Y    0.000000   0.000000   0.000000   0.000000   0.000000
   10  S  1  Z    0.000000  -0.147740   0.000000   0.000000   0.292936
   11  S  1  X   -0.275458   0.000000   0.000000   0.000000   0.000000
   12  S  1  Y    0.000000   0.000000   0.000000   0.000000   0.000000
   13  S  1  Z    0.000000   0.347564   0.000000   0.000000  -0.925818
   14  S  1 XX    0.000000  -0.384813   0.000000   0.000000   0.153060
   15  S  1 YY    0.000000  -0.498876   0.000000   0.000000   0.109147
   16  S  1 ZZ    0.000000   0.883689   0.000000   0.000000  -0.262207
   17  S  1 XY    0.000000   0.000000   1.011800   0.343726   0.000000
   18  S  1 XZ   -0.058053   0.000000   0.000000   0.000000   0.000000
   19  S  1 YZ    0.000000   0.000000   0.000000   0.000000   0.000000
   20  O  2  S   -0.052134  -0.002677   0.000000   0.000000   0.007498
   21  O  2  S    0.090678  -0.110734   0.000000   0.000000  -0.003614
   22  O  2  S    0.521938   0.232582   0.000000   0.000000   0.057864
   23  O  2  X   -0.096461  -0.329884   0.000000   0.000000  -0.333893
   24  O  2  Y    0.000000   0.000000  -0.034918   0.671094   0.000000
   25  O  2  Z    0.187644  -0.191670   0.000000   0.000000  -0.468899
   26  O  2  X    0.907411   0.353454   0.000000   0.000000   0.184009
   27  O  2  Y    0.000000   0.000000   0.632256  -0.630199   0.000000
   28  O  2  Z   -0.750906  -0.378637   0.000000   0.000000   0.953819
   29  O  2 XX    0.014365   0.036892   0.000000   0.000000   0.023149
   30  O  2 YY    0.013356  -0.038573   0.000000   0.000000  -0.017967
   31  O  2 ZZ   -0.027720   0.001681   0.000000   0.000000  -0.005182
   32  O  2 XY    0.000000   0.000000  -0.033930   0.013094   0.000000
   33  O  2 XZ    0.021674   0.050919   0.000000   0.000000  -0.011314
   34  O  2 YZ    0.000000   0.000000   0.051747   0.028710   0.000000
   35  O  3  S    0.052134  -0.002677   0.000000   0.000000   0.007498
   36  O  3  S   -0.090678  -0.110734   0.000000   0.000000  -0.003614
   37  O  3  S   -0.521938   0.232582   0.000000   0.000000   0.057864
   38  O  3  X   -0.096461   0.329884   0.000000   0.000000   0.333893
   39  O  3  Y    0.000000   0.000000   0.034918  -0.671094   0.000000
   40  O  3  Z   -0.187644  -0.191670   0.000000   0.000000  -0.468899
   41  O  3  X    0.907411  -0.353454   0.000000   0.000000  -0.184009
   42  O  3  Y    0.000000   0.000000  -0.632256   0.630199   0.000000
   43  O  3  Z    0.750906  -0.378637   0.000000   0.000000   0.953819
   44  O  3 XX   -0.014365   0.036892   0.000000   0.000000   0.023149
   45  O  3 YY   -0.013356  -0.038573   0.000000   0.000000  -0.017967
   46  O  3 ZZ    0.027720   0.001681   0.000000   0.000000  -0.005182
   47  O  3 XY    0.000000   0.000000  -0.033930   0.013094   0.000000
   48  O  3 XZ    0.021674  -0.050919   0.000000   0.000000   0.011314
   49  O  3 YZ    0.000000   0.000000  -0.051747  -0.028710   0.000000

                     31         32         33         34         35
                    0.8405     0.8919     1.3737     1.5349     1.7197
                     B2         B1         A1         B1         A1  
    1  S  1  S    0.000000   0.000000   0.037807   0.000000  -0.001977
    2  S  1  S    0.000000   0.000000  -0.104363   0.000000  -0.024414
    3  S  1  S    0.000000   0.000000   0.313885   0.000000  -0.045697
    4  S  1  S    0.000000   0.000000   0.741606   0.000000   2.908758
    5  S  1  X    0.000000   0.102669   0.000000  -0.202781   0.000000
    6  S  1  Y   -0.036498   0.000000   0.000000   0.000000   0.000000
    7  S  1  Z    0.000000   0.000000  -0.160641   0.000000  -0.048090
    8  S  1  X    0.000000  -0.474080   0.000000   1.013493   0.000000
    9  S  1  Y    0.065574   0.000000   0.000000   0.000000   0.000000
   10  S  1  Z    0.000000   0.000000   0.666992   0.000000   0.416115
   11  S  1  X    0.000000   0.834312   0.000000   1.186050   0.000000
   12  S  1  Y   -1.029896   0.000000   0.000000   0.000000   0.000000
   13  S  1  Z    0.000000   0.000000   0.089273   0.000000   1.090886
   14  S  1 XX    0.000000   0.000000   1.010651   0.000000   0.221743
   15  S  1 YY    0.000000   0.000000  -0.715422   0.000000  -0.309139
   16  S  1 ZZ    0.000000   0.000000  -0.295229   0.000000   0.087396
   17  S  1 XY    0.000000   0.000000   0.000000   0.000000   0.000000
   18  S  1 XZ    0.000000  -0.049294   0.000000   0.821869   0.000000
   19  S  1 YZ   -0.324931   0.000000   0.000000   0.000000   0.000000
   20  O  2  S    0.000000   0.004670   0.030796  -0.016540   0.012025
   21  O  2  S    0.000000   0.026094  -0.389412  -0.570066   1.252088
   22  O  2  S    0.000000   0.033001  -0.501092   1.967385  -2.743925
   23  O  2  X    0.000000   0.257329  -0.474142   0.557699  -0.136277
   24  O  2  Y   -0.582801   0.000000   0.000000   0.000000   0.000000
   25  O  2  Z    0.000000   0.551620   0.452164  -0.169991   0.113965
   26  O  2  X    0.000000  -0.795318   0.010069   0.105903  -0.663541
   27  O  2  Y    1.095136   0.000000   0.000000   0.000000   0.000000
   28  O  2  Z    0.000000  -0.686336  -0.016675  -0.331088   0.088773
   29  O  2 XX    0.000000   0.062012   0.013544  -0.111722   0.132845
   30  O  2 YY    0.000000  -0.037295  -0.127089   0.023211  -0.025023
   31  O  2 ZZ    0.000000  -0.024718   0.113545   0.088512  -0.107822
   32  O  2 XY   -0.031495   0.000000   0.000000   0.000000   0.000000
   33  O  2 XZ    0.000000   0.017426  -0.025896   0.173328  -0.128680
   34  O  2 YZ    0.016159   0.000000   0.000000   0.000000   0.000000
   35  O  3  S    0.000000  -0.004670   0.030796   0.016540   0.012025
   36  O  3  S    0.000000  -0.026094  -0.389412   0.570066   1.252088
   37  O  3  S    0.000000  -0.033001  -0.501092  -1.967385  -2.743925
   38  O  3  X    0.000000   0.257329   0.474142   0.557699   0.136277
   39  O  3  Y   -0.582801   0.000000   0.000000   0.000000   0.000000
   40  O  3  Z    0.000000  -0.551620   0.452164   0.169991   0.113965
   41  O  3  X    0.000000  -0.795318  -0.010069   0.105903   0.663541
   42  O  3  Y    1.095136   0.000000   0.000000   0.000000   0.000000
   43  O  3  Z    0.000000   0.686336  -0.016675   0.331088   0.088773
   44  O  3 XX    0.000000  -0.062012   0.013544   0.111722   0.132845
   45  O  3 YY    0.000000   0.037295  -0.127089  -0.023211  -0.025023
   46  O  3 ZZ    0.000000   0.024718   0.113545  -0.088512  -0.107822
   47  O  3 XY    0.031495   0.000000   0.000000   0.000000   0.000000
   48  O  3 XZ    0.000000   0.017426   0.025896   0.173328   0.128680
   49  O  3 YZ    0.016159   0.000000   0.000000   0.000000   0.000000

                     36         37         38         39         40
                    1.7556     2.0225     2.0554     2.1275     2.1313
                     B1         A2         B2         B1         A1  
    1  S  1  S    0.000000   0.000000   0.000000   0.000000   0.004412
    2  S  1  S    0.000000   0.000000   0.000000   0.000000  -0.046191
    3  S  1  S    0.000000   0.000000   0.000000   0.000000  -0.006035
    4  S  1  S    0.000000   0.000000   0.000000   0.000000  -0.147136
    5  S  1  X    0.138956   0.000000   0.000000  -0.077253   0.000000
    6  S  1  Y    0.000000   0.000000  -0.032661   0.000000   0.000000
    7  S  1  Z    0.000000   0.000000   0.000000   0.000000  -0.022663
    8  S  1  X   -0.324895   0.000000   0.000000   0.168457   0.000000
    9  S  1  Y    0.000000   0.000000   0.170143   0.000000   0.000000
   10  S  1  Z    0.000000   0.000000   0.000000   0.000000   0.053930
   11  S  1  X    0.651953   0.000000   0.000000  -0.019769   0.000000
   12  S  1  Y    0.000000   0.000000   0.009146   0.000000   0.000000
   13  S  1  Z    0.000000   0.000000   0.000000   0.000000  -0.070695
   14  S  1 XX    0.000000   0.000000   0.000000   0.000000   0.202345
   15  S  1 YY    0.000000   0.000000   0.000000   0.000000  -0.345582
   16  S  1 ZZ    0.000000   0.000000   0.000000   0.000000   0.143237
   17  S  1 XY    0.000000   0.046359   0.000000   0.000000   0.000000
   18  S  1 XZ   -0.525504   0.000000   0.000000   0.223507   0.000000
   19  S  1 YZ    0.000000   0.000000  -0.120014   0.000000   0.000000
   20  O  2  S    0.012916   0.000000   0.000000  -0.004251   0.001990
   21  O  2  S   -1.116393   0.000000   0.000000   0.416589  -0.254259
   22  O  2  S    1.235979   0.000000   0.000000  -0.362784   0.221983
   23  O  2  X   -0.315568   0.000000   0.000000   0.223317  -0.114464
   24  O  2  Y    0.000000  -0.040172   0.046948   0.000000   0.000000
   25  O  2  Z    0.155585   0.000000   0.000000  -0.009516   0.049409
   26  O  2  X    0.248520   0.000000   0.000000  -0.276838   0.114082
   27  O  2  Y    0.000000   0.069920  -0.069354   0.000000   0.000000
   28  O  2  Z   -0.286409   0.000000   0.000000  -0.016305  -0.027776
   29  O  2 XX   -0.012813   0.000000   0.000000  -0.410127  -0.156412
   30  O  2 YY    0.273019   0.000000   0.000000   0.545998   0.603115
   31  O  2 ZZ   -0.260206   0.000000   0.000000  -0.135871  -0.446703
   32  O  2 XY    0.000000   0.526435   0.128184   0.000000   0.000000
   33  O  2 XZ   -0.066905   0.000000   0.000000  -0.359070  -0.322852
   34  O  2 YZ    0.000000   0.476117   0.700728   0.000000   0.000000
   35  O  3  S   -0.012916   0.000000   0.000000   0.004251   0.001990
   36  O  3  S    1.116393   0.000000   0.000000  -0.416589  -0.254259
   37  O  3  S   -1.235979   0.000000   0.000000   0.362784   0.221983
   38  O  3  X   -0.315568   0.000000   0.000000   0.223317   0.114464
   39  O  3  Y    0.000000   0.040172   0.046948   0.000000   0.000000
   40  O  3  Z   -0.155585   0.000000   0.000000   0.009516   0.049409
   41  O  3  X    0.248520   0.000000   0.000000  -0.276838  -0.114082
   42  O  3  Y    0.000000  -0.069920  -0.069354   0.000000   0.000000
   43  O  3  Z    0.286409   0.000000   0.000000   0.016305  -0.027776
   44  O  3 XX    0.012813   0.000000   0.000000   0.410127  -0.156412
   45  O  3 YY   -0.273019   0.000000   0.000000  -0.545998   0.603115
   46  O  3 ZZ    0.260206   0.000000   0.000000   0.135871  -0.446703
   47  O  3 XY    0.000000   0.526435  -0.128184   0.000000   0.000000
   48  O  3 XZ   -0.066905   0.000000   0.000000  -0.359070   0.322852
   49  O  3 YZ    0.000000  -0.476117   0.700728   0.000000   0.000000

                     41         42         43         44         45
                    2.3041     2.4763     2.5375     2.8565     2.8945
                     B1         B2         A2         A1         A1  
    1  S  1  S    0.000000   0.000000   0.000000  -0.011952  -0.078621
    2  S  1  S    0.000000   0.000000   0.000000  -0.137663  -0.569879
    3  S  1  S    0.000000   0.000000   0.000000  -0.341987  -1.761938
    4  S  1  S    0.000000   0.000000   0.000000  -0.559100  -1.484466
    5  S  1  X   -0.018593   0.000000   0.000000   0.000000   0.000000
    6  S  1  Y    0.000000   0.104704   0.000000   0.000000   0.000000
    7  S  1  Z    0.000000   0.000000   0.000000   0.110254   0.067241
    8  S  1  X   -0.080408   0.000000   0.000000   0.000000   0.000000
    9  S  1  Y    0.000000  -0.542569   0.000000   0.000000   0.000000
   10  S  1  Z    0.000000   0.000000   0.000000  -0.752684  -0.994809
   11  S  1  X   -0.123440   0.000000   0.000000   0.000000   0.000000
   12  S  1  Y    0.000000  -0.191671   0.000000   0.000000   0.000000
   13  S  1  Z    0.000000   0.000000   0.000000  -0.376716  -0.175080
   14  S  1 XX    0.000000   0.000000   0.000000   0.699234  -0.856582
   15  S  1 YY    0.000000   0.000000   0.000000   0.067601   0.507895
   16  S  1 ZZ    0.000000   0.000000   0.000000  -0.766835   0.348687
   17  S  1 XY    0.000000   0.000000   0.819970   0.000000   0.000000
   18  S  1 XZ    0.705151   0.000000   0.000000   0.000000   0.000000
   19  S  1 YZ    0.000000  -0.506182   0.000000   0.000000   0.000000
   20  O  2  S    0.004573   0.000000   0.000000  -0.020088  -0.042608
   21  O  2  S    0.412580   0.000000   0.000000  -0.333276  -0.433406
   22  O  2  S   -0.282545   0.000000   0.000000   0.708566   1.949107
   23  O  2  X    0.158633   0.000000   0.000000   0.045689   0.275723
   24  O  2  Y    0.000000  -0.020355   0.039101   0.000000   0.000000
   25  O  2  Z   -0.144449   0.000000   0.000000   0.090085  -0.206706
   26  O  2  X    0.011562   0.000000   0.000000   0.431836   0.817926
   27  O  2  Y    0.000000   0.323021   0.299063   0.000000   0.000000
   28  O  2  Z    0.302184   0.000000   0.000000   0.192616  -0.600216
   29  O  2 XX    0.443121   0.000000   0.000000   0.783904   0.389985
   30  O  2 YY    0.231478   0.000000   0.000000  -0.119182  -0.478708
   31  O  2 ZZ   -0.674599   0.000000   0.000000  -0.664722   0.088723
   32  O  2 XY    0.000000   0.791372   0.588719   0.000000   0.000000
   33  O  2 XZ    0.271905   0.000000   0.000000   0.278767  -0.794525
   34  O  2 YZ    0.000000  -0.168000  -0.598456   0.000000   0.000000
   35  O  3  S   -0.004573   0.000000   0.000000  -0.020088  -0.042608
   36  O  3  S   -0.412580   0.000000   0.000000  -0.333276  -0.433406
   37  O  3  S    0.282545   0.000000   0.000000   0.708566   1.949107
   38  O  3  X    0.158633   0.000000   0.000000  -0.045689  -0.275723
   39  O  3  Y    0.000000  -0.020355  -0.039101   0.000000   0.000000
   40  O  3  Z    0.144449   0.000000   0.000000   0.090085  -0.206706
   41  O  3  X    0.011562   0.000000   0.000000  -0.431836  -0.817926
   42  O  3  Y    0.000000   0.323021  -0.299063   0.000000   0.000000
   43  O  3  Z   -0.302184   0.000000   0.000000   0.192616  -0.600216
   44  O  3 XX   -0.443121   0.000000   0.000000   0.783904   0.389985
   45  O  3 YY   -0.231478   0.000000   0.000000  -0.119182  -0.478708
   46  O  3 ZZ    0.674599   0.000000   0.000000  -0.664722   0.088723
   47  O  3 XY    0.000000  -0.791372   0.588719   0.000000   0.000000
   48  O  3 XZ    0.271905   0.000000   0.000000  -0.278767   0.794525
   49  O  3 YZ    0.000000  -0.168000   0.598456   0.000000   0.000000

                     46
                    2.9390
                     B1  
    1  S  1  S    0.000000
    2  S  1  S    0.000000
    3  S  1  S    0.000000
    4  S  1  S    0.000000
    5  S  1  X   -0.204635
    6  S  1  Y    0.000000
    7  S  1  Z    0.000000
    8  S  1  X    2.192470
    9  S  1  Y    0.000000
   10  S  1  Z    0.000000
   11  S  1  X    0.408651
   12  S  1  Y    0.000000
   13  S  1  Z    0.000000
   14  S  1 XX    0.000000
   15  S  1 YY    0.000000
   16  S  1 ZZ    0.000000
   17  S  1 XY    0.000000
   18  S  1 XZ    0.937609
   19  S  1 YZ    0.000000
   20  O  2  S   -0.040960
   21  O  2  S   -0.324375
   22  O  2  S    1.990083
   23  O  2  X    0.406035
   24  O  2  Y    0.000000
   25  O  2  Z   -0.215222
   26  O  2  X    0.925678
   27  O  2  Y    0.000000
   28  O  2  Z   -0.499405
   29  O  2 XX    0.604598
   30  O  2 YY   -0.417016
   31  O  2 ZZ   -0.187582
   32  O  2 XY    0.000000
   33  O  2 XZ   -0.720992
   34  O  2 YZ    0.000000
   35  O  3  S    0.040960
   36  O  3  S    0.324375
   37  O  3  S   -1.990083
   38  O  3  X    0.406035
   39  O  3  Y    0.000000
   40  O  3  Z    0.215222
   41  O  3  X    0.925678
   42  O  3  Y    0.000000
   43  O  3  Z    0.499405
   44  O  3 XX   -0.604598
   45  O  3 YY    0.417016
   46  O  3 ZZ    0.187582
   47  O  3 XY    0.000000
   48  O  3 XZ   -0.720992
   49  O  3 YZ    0.000000
 ...... END OF RHF CALCULATION ......
 STEP CPU TIME =     4.21 TOTAL CPU TIME =        4.4 (    0.1 MIN)
 TOTAL WALL CLOCK TIME=        4.4 SECONDS, CPU UTILIZATION IS 100.00%

     ---------------------------------------------------------------------
     PROPERTIES FOR THE PBE      DFT FUNCTIONAL (RHF  TYPE) DENSITY MATRIX
     ---------------------------------------------------------------------

          -----------------
          ENERGY COMPONENTS
          -----------------

         WAVEFUNCTION NORMALIZATION =       1.0000000000

                ONE ELECTRON ENERGY =   -1011.4055456135
                TWO ELECTRON ENERGY =     334.2774697752
           NUCLEAR REPULSION ENERGY =     129.1855799604
                                      ------------------
                       TOTAL ENERGY =    -547.9424958778

 ELECTRON-ELECTRON POTENTIAL ENERGY =     334.2774697752
  NUCLEUS-ELECTRON POTENTIAL ENERGY =   -1562.1050796496
   NUCLEUS-NUCLEUS POTENTIAL ENERGY =     129.1855799604
                                      ------------------
             TOTAL POTENTIAL ENERGY =   -1098.6420299140
               TOTAL KINETIC ENERGY =     550.6995340361
                 VIRIAL RATIO (V/T) =       1.9949935709

          ---------------------------------------
          MULLIKEN AND LOWDIN POPULATION ANALYSES
          ---------------------------------------

     ATOMIC MULLIKEN POPULATION IN EACH MOLECULAR ORBITAL

                      1          2          3          4          5

                  2.000000   2.000000   2.000000   2.000000   2.000000

    1             2.000080   0.000178   0.002253   2.003425   1.998338
    2            -0.000040   0.999911   0.998873  -0.001713   0.000831
    3            -0.000040   0.999911   0.998873  -0.001713   0.000831

                      6          7          8          9         10

                  2.000000   2.000000   2.000000   2.000000   2.000000

    1             1.999926   1.999341   0.729192   0.602636   0.993823
    2             0.000037   0.000330   0.635404   0.698682   0.503088
    3             0.000037   0.000330   0.635404   0.698682   0.503088

                     11         12         13         14         15

                  2.000000   2.000000   2.000000   2.000000   2.000000

    1             0.895513   0.297500   0.221455   0.211665   0.220489
    2             0.552244   0.851250   0.889272   0.894168   0.889755
    3             0.552244   0.851250   0.889272   0.894168   0.889755

                     16

                  2.000000

    1             1.286170
    2             0.356915
    3             0.356915

               ----- POPULATIONS IN EACH AO -----
                             MULLIKEN      LOWDIN
              1  S  1  S      2.00026     1.99578
              2  S  1  S      2.01125     1.92030
              3  S  1  S      0.86443     0.50602
              4  S  1  S      0.99307     0.58709
              5  S  1  X      1.99673     1.95817
              6  S  1  Y      1.99565     1.95464
              7  S  1  Z      1.99713     1.96545
              8  S  1  X      0.71875     0.61400
              9  S  1  Y      0.65073     0.58010
             10  S  1  Z      0.87017     0.83181
             11  S  1  X      0.09647     0.25088
             12  S  1  Y      0.21426     0.28954
             13  S  1  Z      0.22947     0.36904
             14  S  1 XX      0.15179     0.37434
             15  S  1 YY      0.19421     0.24027
             16  S  1 ZZ      0.21166     0.33027
             17  S  1 XY      0.23115     0.26981
             18  S  1 XZ      0.03480     0.28609
             19  S  1 YZ      0.00000     0.03496
             20  O  2  S      1.99799     1.97893
             21  O  2  S      0.80122     0.60581
             22  O  2  S      0.89477     0.49523
             23  O  2  X      1.07649     1.03651
             24  O  2  Y      0.91628     0.86226
             25  O  2  Z      1.09668     1.06458
             26  O  2  X      0.41541     0.51903
             27  O  2  Y      0.51630     0.55444
             28  O  2  Z      0.51611     0.58894
             29  O  2 XX      0.00687     0.20666
             30  O  2 YY      0.00737     0.18193
             31  O  2 ZZ      0.01041     0.18444
             32  O  2 XY      0.00965     0.01442
             33  O  2 XZ      0.00346     0.02319
             34  O  2 YZ      0.00000     0.00435
             35  O  3  S      1.99799     1.97893
             36  O  3  S      0.80122     0.60581
             37  O  3  S      0.89477     0.49523
             38  O  3  X      1.07649     1.03651
             39  O  3  Y      0.91628     0.86226
             40  O  3  Z      1.09668     1.06458
             41  O  3  X      0.41541     0.51903
             42  O  3  Y      0.51630     0.55444
             43  O  3  Z      0.51611     0.58894
             44  O  3 XX      0.00687     0.20666
             45  O  3 YY      0.00737     0.18193
             46  O  3 ZZ      0.01041     0.18444
             47  O  3 XY      0.00965     0.01442
             48  O  3 XZ      0.00346     0.02319
             49  O  3 YZ      0.00000     0.00435

          ----- MULLIKEN ATOMIC OVERLAP POPULATIONS -----
          (OFF-DIAGONAL ELEMENTS NEED TO BE MULTIPLIED BY 2)

             1           2           3

    1   14.6368041
    2    0.4125902   7.9160876
    3    0.4125902  -0.0596700   7.9160876

          TOTAL MULLIKEN AND LOWDIN ATOMIC POPULATIONS
       ATOM         MULL.POP.    CHARGE          LOW.POP.     CHARGE
    1 S            15.461984    0.538016        15.358562    0.641438
    2 O             8.269008   -0.269008         8.320719   -0.320719
    3 O             8.269008   -0.269008         8.320719   -0.320719

          MULLIKEN SPHERICAL HARMONIC POPULATIONS
       ATOM           S       P       D      F      G      H      I    TOTAL
    1 S             5.87    8.77    0.82   0.00   0.00   0.00   0.00   15.46
    2 O             3.69    4.54    0.04   0.00   0.00   0.00   0.00    8.27
    3 O             3.69    4.54    0.04   0.00   0.00   0.00   0.00    8.27

          -------------------------------
          BOND ORDER AND VALENCE ANALYSIS     BOND ORDER THRESHOLD=0.050
          -------------------------------

                   BOND                       BOND                       BOND
  ATOM PAIR DIST  ORDER      ATOM PAIR DIST  ORDER      ATOM PAIR DIST  ORDER
    1   2  1.200  2.078        1   3  1.200  2.078        2   3  2.078  0.084

                       TOTAL       BONDED        FREE
      ATOM            VALENCE     VALENCE     VALENCE
    1 S                 4.156       4.156       0.000
    2 O                 2.162       2.162       0.000
    3 O                 2.162       2.162       0.000

          ---------------------
          ELECTROSTATIC MOMENTS
          ---------------------

 POINT   1           X           Y           Z (BOHR)    CHARGE
                 0.000000    0.000000    0.000000        0.00 (A.U.)
         DX          DY          DZ         /D/  (DEBYE)
     0.000000    0.000000   -0.857988    0.857988
 ...... END OF PROPERTY EVALUATION ......
 STEP CPU TIME =     0.01 TOTAL CPU TIME =        4.4 (    0.1 MIN)
 TOTAL WALL CLOCK TIME=        4.4 SECONDS, CPU UTILIZATION IS 100.00%
               580000  WORDS OF DYNAMIC MEMORY USED
 EXECUTION OF GAMESS TERMINATED NORMALLY Thu Feb 26 00:13:00 2015
 DDI: 263624 bytes (0.3 MB / 0 MWords) used by master data server.

 ----------------------------------------
 CPU timing information for all processes
 ========================================
 0: 4.385 + 0.20 = 4.406
 ----------------------------------------
 ddikick.x: exited gracefully.
----- accounting info -----
Files used on the master node dftfe.crc.nd.edu were:
-rw-r--r-- 1 pmehta1 campus   37475 Feb 26 00:13 /tmp/gamess.dat
-rw-r--r-- 1 pmehta1 campus     142 Feb 26 00:12 /tmp/gamess.F05
-rw-r--r-- 1 pmehta1 campus 2340312 Feb 26 00:12 /tmp/gamess.F08
-rw-r--r-- 1 pmehta1 campus 1220440 Feb 26 00:13 /tmp/gamess.F10
Thu Feb 26 00:13:03 EST 2015
0.236u 0.185s 0:07.84 5.2%	0+0k 0+104io 0pf+0w
