----- GAMESS execution script 'rungms' -----
This job is running on host dftfe.crc.nd.edu
under operating system Linux at Thu Feb 26 00:23:11 EST 2015
Available scratch disk space (Kbyte units) at beginning of the job is
Filesystem     1K-blocks     Used Available Use% Mounted on
/dev/sda2      147771864 22819188 117446244  17% /
GAMESS temporary binary files will be written to /tmp
GAMESS supplementary output files will be written to /tmp
Copying input file gamess.inp to your run's scratch directory...

 Distributed Data Interface kickoff program.
 Initiating 1 compute processes on 1 nodes to run the following command:
 /opt/crc/gamess/2012R1/gamess/gamess.00.x gamess 

          ******************************************************
          *         GAMESS VERSION =  1 MAY 2012 (R1)          *
          *             FROM IOWA STATE UNIVERSITY             *
          * M.W.SCHMIDT, K.K.BALDRIDGE, J.A.BOATZ, S.T.ELBERT, *
          *   M.S.GORDON, J.H.JENSEN, S.KOSEKI, N.MATSUNAGA,   *
          *          K.A.NGUYEN, S.J.SU, T.L.WINDUS,           *
          *       TOGETHER WITH M.DUPUIS, J.A.MONTGOMERY       *
          *         J.COMPUT.CHEM.  14, 1347-1363(1993)        *
          **************** 64 BIT LINUX VERSION ****************

  SINCE 1993, STUDENTS AND POSTDOCS WORKING AT IOWA STATE UNIVERSITY
  AND ALSO IN THEIR VARIOUS JOBS AFTER LEAVING ISU HAVE MADE IMPORTANT
  CONTRIBUTIONS TO THE CODE:
     IVANA ADAMOVIC, CHRISTINE AIKENS, YURI ALEXEEV, POOJA ARORA,
     ANDREY ASADCHEV, ROB BELL, PRADIPTA BANDYOPADHYAY, JONATHAN BENTZ,
     BRETT BODE, GALINA CHABAN, WEI CHEN, CHEOL HO CHOI, PAUL DAY,
     ALBERT DEFUSCO, TIM DUDLEY, DMITRI FEDOROV, GRAHAM FLETCHER,
     MARK FREITAG, KURT GLAESEMANN, DAN KEMP, GRANT MERRILL,
     NORIYUKI MINEZAWA, JONATHAN MULLIN, TAKESHI NAGATA,
     SEAN NEDD, HEATHER NETZLOFF, BOSILJKA NJEGIC, RYAN OLSON, MIKE PAK,
     JIM SHOEMAKER, LYUDMILA SLIPCHENKO, SAROM SOK, JIE SONG,
     TETSUYA TAKETSUGU, SIMON WEBB, SOOHAENG YOO, FEDERICO ZAHARIEV

  ADDITIONAL CODE HAS BEEN PROVIDED BY COLLABORATORS IN OTHER GROUPS:
     IOWA STATE UNIVERSITY:
          JOE IVANIC, LAIMUTIS BYTAUTAS, KLAUS RUEDENBERG
     UNIVERSITY OF TOKYO: KIMIHIKO HIRAO, TAKAHITO NAKAJIMA,
          TAKAO TSUNEDA, MUNEAKI KAMIYA, SUSUMU YANAGISAWA,
          KIYOSHI YAGI, MAHITO CHIBA, SEIKEN TOKURA, NAOAKI KAWAKAMI
     UNIVERSITY OF AARHUS: FRANK JENSEN
     UNIVERSITY OF IOWA: VISVALDAS KAIRYS, HUI LI
     NATIONAL INST. OF STANDARDS AND TECHNOLOGY: WALT STEVENS, DAVID GARMER
     UNIVERSITY OF PISA: BENEDETTA MENNUCCI, JACOPO TOMASI
     UNIVERSITY OF MEMPHIS: HENRY KURTZ, PRAKASHAN KORAMBATH
     UNIVERSITY OF ALBERTA: TOBY ZENG, MARIUSZ KLOBUKOWSKI
     UNIVERSITY OF NEW ENGLAND: MARK SPACKMAN
     MIE UNIVERSITY: HIROAKI UMEDA
     MICHIGAN STATE UNIVERSITY:
          KAROL KOWALSKI, MARTA WLOCH, JEFFREY GOUR, JESSE LUTZ, PIOTR PIECUCH
     UNIVERSITY OF SILESIA: MONIKA MUSIAL, STANISLAW KUCHARSKI
     FACULTES UNIVERSITAIRES NOTRE-DAME DE LA PAIX:
          OLIVIER QUINET, BENOIT CHAMPAGNE
     UNIVERSITY OF CALIFORNIA - SANTA BARBARA: BERNARD KIRTMAN
     INSTITUTE FOR MOLECULAR SCIENCE:
          KAZUYA ISHIMURA, MICHIO KATOUDA, AND SHIGERU NAGASE
     UNIVERSITY OF NOTRE DAME: DAN CHIPMAN
     KYUSHU UNIVERSITY:
          HARUYUKI NAKANO,
          FENG LONG GU, JACEK KORCHOWIEC, MARCIN MAKOWSKI, AND YURIKO AOKI,
          HIROTOSHI MORI AND EISAKU MIYOSHI
     PENNSYLVANIA STATE UNIVERSITY:
          TZVETELIN IORDANOV, CHET SWALINA, JONATHAN SKONE,
          SHARON HAMMES-SCHIFFER
     WASEDA UNIVERSITY:
          MASATO KOBAYASHI, TOMOKO AKAMA, TSUGUKI TOUMA,
          TAKESHI YOSHIKAWA, YASUHIRO IKABATA, HIROMI NAKAI
     UNIVERSITY OF NEBRASKA:
          PEIFENG SU, DEJUN SI, NANDUN THELLAMUREGE, YALI WANG, HUI LI
     UNIVERSITY OF ZURICH:
          ROBERTO PEVERATI, KIM BALDRIDGE
     N. COPERNICUS UNIVERSITY AND JACKSON STATE UNIVERSITY:
          MARIA BARYSZ

 EXECUTION OF GAMESS BEGUN Thu Feb 26 00:23:11 2015

            ECHO OF THE FIRST FEW INPUT CARDS -
 INPUT CARD> $BASIS GBASIS=PC1 $END                                                         
 INPUT CARD> $CONTRL COORD=ZMT ISPHER=1 RUNTYP=ENERGY DFTTYP=PBE $END                       
 INPUT CARD>                                                                                
 INPUT CARD> $DATA                                                                          
 INPUT CARD>Title                                                                           
 INPUT CARD>Cnv 2                                                                           
 INPUT CARD>                                                                                
 INPUT CARD>S                                                                               
 INPUT CARD>O 1 2.00                                                                        
 INPUT CARD>O 1 2.00 2 160.0                                                                
 INPUT CARD> $END                                                                           
    1000000 WORDS OF MEMORY AVAILABLE

     BASIS OPTIONS
     -------------
     GBASIS=PC1          IGAUSS=       0      POLAR=NONE    
     NDFUNC=       0     NFFUNC=       0     DIFFSP=       F
     NPFUNC=       0      DIFFS=       F     BASNAM=        


     RUN TITLE
     ---------
 Title                                                                           

 THE POINT GROUP OF THE MOLECULE IS CNV     
 THE ORDER OF THE PRINCIPAL AXIS IS     2

 YOUR FULLY SUBSTITUTED Z-MATRIX IS
 S   
 O      1   2.0000000
 O      1   2.0000000  2  160.0000

 THE MOMENTS OF INERTIA ARE (AMU-ANGSTROM**2)
 IXX=     1.929   IYY=   124.101   IZZ=   126.030

 ATOM      ATOMIC                      COORDINATES (BOHR)
           CHARGE         X                   Y                   Z
 S          16.0     0.0000000000        0.0000000000       -0.3282385379
 O           8.0    -3.7220336076        0.0000000000        0.3280564102
 O           8.0     3.7220336076        0.0000000000        0.3280564102

          INTERNUCLEAR DISTANCES (ANGS.)
          ------------------------------

                1 S          2 O          3 O     

   1 S       0.0000000    2.0000000 *  2.0000000 *
   2 O       2.0000000 *  0.0000000    3.9392310  
   3 O       2.0000000 *  3.9392310    0.0000000  

  * ... LESS THAN  3.000


     ATOMIC BASIS SET
     ----------------
 THE CONTRACTED PRIMITIVE FUNCTIONS HAVE BEEN UNNORMALIZED
 THE CONTRACTED BASIS FUNCTIONS ARE NOW NORMALIZED TO UNITY

  SHELL TYPE  PRIMITIVE        EXPONENT          CONTRACTION COEFFICIENT(S)

 S         

      1   S       1         55510.0000000    0.000587229760
      1   S       2          8326.7000000    0.004532413947
      1   S       3          1895.6000000    0.023265261648
      1   S       4           536.7700000    0.089696133027
      1   S       5           174.6700000    0.254098332277
      1   S       6            62.5780000    0.438665087637
      1   S       7            23.5730000    0.314547135094
      1   S       8             5.8908000    0.032727897102

      2   S       9          8326.7000000   -0.000019755715
      2   S      10          1895.6000000   -0.000043822381
      2   S      11           536.7700000   -0.001730264906
      2   S      12           174.6700000   -0.009381263460
      2   S      13            62.5780000   -0.064050766303
      2   S      14            23.5730000   -0.082478179196
      2   S      15             5.8908000    0.478342956889
      2   S      16             2.1852000    0.626896670208

      3   S      17          1895.6000000    0.000016227260
      3   S      18           536.7700000    0.000191135619
      3   S      19           174.6700000    0.001952069674
      3   S      20            62.5780000    0.010578701087
      3   S      21            23.5730000    0.022164934551
      3   S      22             5.8908000   -0.184968323118
      3   S      23             2.1852000   -0.480920750976
      3   S      24             0.4528200    1.243822243872

      4   S      25             0.1620200    1.000000000000

      5   P      26           395.4500000    0.004642761329
      5   P      27            92.8340000    0.036023396489
      5   P      28            29.2660000    0.149058869978
      5   P      29            10.5950000    0.360033266263
      5   P      30             4.0272000    0.455756476221
      5   P      31             1.5484000    0.206167664178

      6   P      32            92.8340000    0.000169901442
      6   P      33            29.2660000   -0.002541839934
      6   P      34            10.5950000   -0.007867614595
      6   P      35             4.0272000   -0.037231009184
      6   P      36             1.5484000    0.161417246830
      6   P      37             0.4613400    0.902230419976

      7   P      38             0.1313100    1.000000000000

      8   D      39             0.5500000    1.000000000000

 O         

     15   S      40          2306.7000000    0.005424388755
     15   S      41           347.1500000    0.040474749465
     15   S      42            78.8900000    0.180219634554
     15   S      43            21.8760000    0.462370311787
     15   S      44             6.6646000    0.454888396263

     16   S      45           347.1500000   -0.000655003786
     16   S      46            78.8900000   -0.005362052952
     16   S      47            21.8760000   -0.074902158894
     16   S      48             6.6646000   -0.181442579655
     16   S      49             1.0669000    1.102006874042

     17   S      50             0.3070000    1.000000000000

     18   P      51            17.0220000    0.068979967443
     18   P      52             3.6838000    0.351985516325
     18   P      53             0.9923400    0.724036547822

     19   P      54             0.2448700    1.000000000000

     20   D      55             1.0000000    1.000000000000

 TOTAL NUMBER OF BASIS SET SHELLS             =   20
 NUMBER OF CARTESIAN GAUSSIAN BASIS FUNCTIONS =   49
 NOTE: THIS RUN WILL RESTRICT THE MO VARIATION SPACE TO SPHERICAL HARMONICS.
 THE NUMBER OF ORBITALS KEPT IN THE VARIATIONAL SPACE WILL BE PRINTED LATER.
 NUMBER OF ELECTRONS                          =   32
 CHARGE OF MOLECULE                           =    0
 SPIN MULTIPLICITY                            =    1
 NUMBER OF OCCUPIED ORBITALS (ALPHA)          =   16
 NUMBER OF OCCUPIED ORBITALS (BETA )          =   16
 TOTAL NUMBER OF ATOMS                        =    3
 THE NUCLEAR REPULSION ENERGY IS       76.3321384832

     LEBEDEV GRID-BASED DFT OPTIONS
     ------------------------------
     DFTTYP=PBE     
     NRAD  =      96     NLEB  =     302
     NRAD0 =      24     NLEB0 =     110
     SWOFF =    5.00E-03 (PURE SCF -> DFT)
     SWITCH=    3.00E-04 (COARSE -> TIGHT GRID)
     THRESH=    0.00E+00 GTHRE=    1.00E+00

 GRIMME'S EMPIRICAL DISPERSION CORRECTION= F

     $CONTRL OPTIONS
     ---------------
 SCFTYP=RHF          RUNTYP=ENERGY       EXETYP=RUN     
 MPLEVL=       0     CITYP =NONE         CCTYP =NONE         VBTYP =NONE    
 DFTTYP=PBE          TDDFT =NONE    
 MULT  =       1     ICHARG=       0     NZVAR =       0     COORD =ZMT     
 PP    =NONE         RELWFN=NONE         LOCAL =NONE         NUMGRD=       F
 ISPHER=       1     NOSYM =       0     MAXIT =      30     UNITS =ANGS    
 PLTORB=       F     MOLPLT=       F     AIMPAC=       F     FRIEND=        
 NPRINT=       7     IREST =       0     GEOM  =INPUT   
 NORMF =       0     NORMP =       0     ITOL  =      20     ICUT  =       9
 INTTYP=BEST         GRDTYP=BEST         QMTTOL= 1.0E-06

     $SYSTEM OPTIONS
     ---------------
  REPLICATED MEMORY=     1000000 WORDS (ON EVERY NODE).
 DISTRIBUTED MEMDDI=           0 MILLION WORDS IN AGGREGATE,
 MEMDDI DISTRIBUTED OVER   1 PROCESSORS IS           0 WORDS/PROCESSOR.
 TOTAL MEMORY REQUESTED ON EACH PROCESSOR=     1000000 WORDS.
 TIMLIM=      525600.00 MINUTES, OR     365.0 DAYS.
 PARALL= F  BALTYP=  DLB     KDIAG=    0  COREFL= F
 MXSEQ2=     300 MXSEQ3=     150

          ----------------
          PROPERTIES INPUT
          ----------------

     MOMENTS            FIELD           POTENTIAL          DENSITY
 IEMOM =       1   IEFLD =       0   IEPOT =       0   IEDEN =       0
 WHERE =COMASS     WHERE =NUCLEI     WHERE =NUCLEI     WHERE =NUCLEI  
 OUTPUT=BOTH       OUTPUT=BOTH       OUTPUT=BOTH       OUTPUT=BOTH    
 IEMINT=       0   IEFINT=       0                     IEDINT=       0
                                                       MORB  =       0
          EXTRAPOLATION IN EFFECT
          DIIS IN EFFECT
 ORBITAL PRINTING OPTION: NPREO=     1    49     2     1

     -------------------------------
     INTEGRAL TRANSFORMATION OPTIONS
     -------------------------------
     NWORD  =            0
     CUTOFF = 1.0E-09     MPTRAN =       0
     DIRTRF =       F     AOINTS =DUP     

          ----------------------
          INTEGRAL INPUT OPTIONS
          ----------------------
 NOPK  =       1 NORDER=       0 SCHWRZ=       F

   --- ENCODED Z MATRIX ---
 COORD  TYPE   I   J   K   L   M   N
    1      1    3   1
    2      1    2   1
    3      2    2   1   3

 THE DETERMINANT OF THE G MATRIX IS 10**(    -4)

 THE DETERMINANT OF THE G MATRIX IS 10**(    -4)
 * * * WARNING * * *
 YOUR B MATRIX HAS A SMALL DETERMINANT.
 THIS SUGGESTS YOU MAY HAVE BADLY CHOSEN COORDINATES.

     ------------------------------------------
     THE POINT GROUP IS CNV, NAXIS= 2, ORDER= 4
     ------------------------------------------

 -- VARIATIONAL SPACE WILL BE RESTRICTED TO PURE SPHERICAL HARMONICS ONLY --
 AFTER EXCLUDING CONTAMINANT COMBINATIONS FROM THE CARTESIAN GAUSSIAN BASIS
 SET, THE NUMBER OF SPHERICAL HARMONICS KEPT IN THE VARIATION SPACE IS   46

     DIMENSIONS OF THE SYMMETRY SUBSPACES ARE
 A1  =   19     A2  =    5     B1  =   14     B2  =    8

 ..... DONE SETTING UP THE RUN .....
 STEP CPU TIME =     0.02 TOTAL CPU TIME =        0.0 (    0.0 MIN)
 TOTAL WALL CLOCK TIME=        0.0 SECONDS, CPU UTILIZATION IS 100.00%

          ********************
          1 ELECTRON INTEGRALS
          ********************
 ...... END OF ONE-ELECTRON INTEGRALS ......
 STEP CPU TIME =     0.00 TOTAL CPU TIME =        0.0 (    0.0 MIN)
 TOTAL WALL CLOCK TIME=        0.0 SECONDS, CPU UTILIZATION IS 100.00%

          -------------
          GUESS OPTIONS
          -------------
          GUESS =HUCKEL            NORB  =       0          NORDER=       0
          MIX   =       F          PRTMO =       F          PUNMO =       F
          TOLZ  = 1.0E-08          TOLE  = 1.0E-05
          SYMDEN=       F          PURIFY=       F

 INITIAL GUESS ORBITALS GENERATED BY HUCKEL   ROUTINE.
 HUCKEL GUESS REQUIRES     21583 WORDS.

 STATISTICS FOR GENERATION OF SYMMETRY ORBITAL -Q- MATRIX
 NUMBER OF CARTESIAN ATOMIC ORBITALS=         49
 NUMBER OF SPHERICAL CONTAMINANTS DROPPED=     3
 NUMBER OF LINEARLY DEPENDENT MOS DROPPED=     0
 TOTAL NUMBER OF MOS IN VARIATION SPACE=      46

 SYMMETRIES FOR INITIAL GUESS ORBITALS FOLLOW.   BOTH SET(S).
    16 ORBITALS ARE OCCUPIED (    7 CORE ORBITALS).
     8=B1       9=A1      10=A1      11=B1      12=B2      13=A1      14=A2  
    15=B1      16=A1      17=B2      18=A1      19=B1      20=A1      21=A1  
    22=A1      23=A1      24=A1      25=A1      26=A1  
 ...... END OF INITIAL ORBITAL SELECTION ......
 STEP CPU TIME =     0.01 TOTAL CPU TIME =        0.0 (    0.0 MIN)
 TOTAL WALL CLOCK TIME=        0.0 SECONDS, CPU UTILIZATION IS 100.00%

                    ----------------------
                    AO INTEGRAL TECHNOLOGY
                    ----------------------
     S,P,L SHELL ROTATED AXIS INTEGRALS, REPROGRAMMED BY
        KAZUYA ISHIMURA (IMS) AND JOSE SIERRA (SYNSTAR).
     S,P,D,L SHELL ROTATED AXIS INTEGRALS PROGRAMMED BY
        KAZUYA ISHIMURA (INSTITUTE FOR MOLECULAR SCIENCE).
     S,P,D,F,G SHELL TO TOTAL QUARTET ANGULAR MOMENTUM SUM 5,
        ERIC PROGRAM BY GRAHAM FLETCHER (ELORET AND NASA ADVANCED
        SUPERCOMPUTING DIVISION, AMES RESEARCH CENTER).
     S,P,D,F,G,L SHELL GENERAL RYS QUADRATURE PROGRAMMED BY
        MICHEL DUPUIS (PACIFIC NORTHWEST NATIONAL LABORATORY).

          --------------------
          2 ELECTRON INTEGRALS
          --------------------

 THE -PK- OPTION IS OFF, THE INTEGRALS ARE NOT IN SUPERMATRIX FORM.
 STORING   15000 INTEGRALS/RECORD ON DISK, USING 12 BYTES/INTEGRAL.
 TWO ELECTRON INTEGRAL EVALUATION REQUIRES   90606 WORDS OF MEMORY.
 II,JST,KST,LST =  1  1  1  1 NREC =         1 INTLOC =    1
 II,JST,KST,LST =  2  1  1  1 NREC =         1 INTLOC =    2
 II,JST,KST,LST =  3  1  1  1 NREC =         1 INTLOC =    7
 II,JST,KST,LST =  4  1  1  1 NREC =         1 INTLOC =   22
 II,JST,KST,LST =  5  1  1  1 NREC =         1 INTLOC =   56
 II,JST,KST,LST =  6  1  1  1 NREC =         1 INTLOC =  125
 II,JST,KST,LST =  7  1  1  1 NREC =         1 INTLOC =  329
 II,JST,KST,LST =  8  1  1  1 NREC =         1 INTLOC =  776
 II,JST,KST,LST =  9  1  1  1 NREC =         1 INTLOC = 2864
 II,JST,KST,LST = 10  1  1  1 NREC =         1 INTLOC = 2864
 II,JST,KST,LST = 11  1  1  1 NREC =         1 INTLOC = 2864
 II,JST,KST,LST = 12  1  1  1 NREC =         1 INTLOC = 2864
 II,JST,KST,LST = 13  1  1  1 NREC =         1 INTLOC = 2864
 II,JST,KST,LST = 14  1  1  1 NREC =         1 INTLOC = 2864
 II,JST,KST,LST = 15  1  1  1 NREC =         1 INTLOC = 2864
 II,JST,KST,LST = 16  1  1  1 NREC =         1 INTLOC = 4648
 II,JST,KST,LST = 17  1  1  1 NREC =         1 INTLOC = 7553
 II,JST,KST,LST = 18  1  1  1 NREC =         1 INTLOC =11682
 II,JST,KST,LST = 19  1  1  1 NREC =         2 INTLOC =11416
 II,JST,KST,LST = 20  1  1  1 NREC =         4 INTLOC =10037
 TOTAL NUMBER OF NONZERO TWO-ELECTRON INTEGRALS =              141602
         10 INTEGRAL RECORDS WERE STORED ON DISK FILE  8.
  ...... END OF TWO-ELECTRON INTEGRALS .....
 STEP CPU TIME =     0.14 TOTAL CPU TIME =        0.2 (    0.0 MIN)
 TOTAL WALL CLOCK TIME=        0.2 SECONDS, CPU UTILIZATION IS  94.44%

          --------------------------
               R-PBE SCF CALCULATION
          --------------------------

     NUCLEAR ENERGY =        76.3321384832
     MAXIT =   30     NPUNCH=    2
     EXTRAP=T  DAMP=F  SHIFT=F  RSTRCT=F  DIIS=T  DEM=F  SOSCF=F
         DENSITY MATRIX CONVERGENCE THRESHOLD=  1.00E-05
     COARSE -> FINE DFT GRID SWITCH THRESHOLD=  3.00E-04 (SWITCH IN $DFT)
                   HF -> DFT SWITCH THRESHOLD=  5.00E-03 (SWOFF IN $DFT)
     MEMORY REQUIRED FOR RHF ITERS=    183108 WORDS.

 DFT CODE IS SWITCHING FROM THE FINE GRID NRAD= 96,  NLEB=  302
                      TO THE COARSE GRID NRAD0= 24, NLEB0=  110

     EXCHANGE FUNCTIONAL   =PBE       
     CORRELATION FUNCTIONAL=PBE       
     DFT THRESHOLD         =.460E-07
     GRID CHANGE THRESHOLD =.300E-03
 FOR AN EULER-MACLAURIN QUADRATURE USING  96 RADIAL POINTS:
 SMALLEST GAUSSIAN PRIMITIVE EXPONENT=        0.1313100000 OF TYPE -P-
 ON ATOM NUMBER   1 HAS RADIAL NORMALIZATION=  1.000000
  LARGEST GAUSSIAN PRIMITIVE EXPONENT=    55510.0000000000 OF TYPE -S-
 ON ATOM NUMBER   1 HAS RADIAL NORMALIZATION=  0.999999
 DFT IS SWITCHED OFF, PERFORMING PURE SCF UNTIL SWOFF THRESHOLD IS REACHED.

 ITER EX DEM     TOTAL ENERGY        E CHANGE  DENSITY CHANGE    DIIS ERROR
   1  0  0     -545.4240885869  -545.4240885869   0.882663409   1.009378028
   2  1  0     -544.8203236094     0.6037649775   1.106290687   0.937987817
   3  2  0     -543.6179355833     1.2023880261   1.641314785   0.901999855
   4  3  0     -537.9677853623     5.6501502209   1.688940358   2.210797780
   5  0  0     -539.8344253013    -1.8666399390   0.920455901   1.212087729
          * * *   INITIATING DIIS PROCEDURE   * * *
   6  1  0     -545.5809869408    -5.7465616395   1.219098833   0.487403414
   7  2  0     -543.5759022055     2.0050847353   0.778123934   1.210273503
   8  3  0     -546.5880740553    -3.0121718498   0.088304264   0.175183208
   9  4  0     -546.6713775349    -0.0833034796   0.070000596   0.070186339
  10  5  0     -546.7047300482    -0.0333525133   0.058432330   0.031188020
  11  6  0     -546.7217727438    -0.0170426956   0.066362467   0.027569323
  12  7  0     -546.7368992084    -0.0151264646   0.164015037   0.029736542
  13  8  0     -546.7672718153    -0.0303726069   0.026775393   0.010967478
  14  9  0     -546.7700247709    -0.0027529556   0.018020415   0.008278485
  15 10  0     -546.7709289227    -0.0009041518   0.018732832   0.007090167
  16 11  0     -546.7709590287    -0.0000301060   0.034200040   0.004810972
  17 12  0     -546.7719557148    -0.0009966861   0.021897075   0.003229317
  18 13  0     -546.7721868009    -0.0002310860   0.008989126   0.002811817
  19 14  0     -546.7722720779    -0.0000852771   0.002322819   0.000343781
 CONVERGED TO SWOFF, SO DFT CALCULATION IS NOW SWITCHED ON.
          * * *   INITIATING DIIS PROCEDURE   * * *
  20 15  0     -547.8667473514    -1.0944752735   0.727037556   0.101318966
  21 16  0     -547.9298977942    -0.0631504428   0.524006055   0.208455439
  22 17  0     -547.6171700055     0.3127277887   0.265312139   0.471746709
  23 18  0     -548.0712130960    -0.4540430906   0.038365960   0.038341270
  24 19  0     -548.0762724849    -0.0050593889   0.015546318   0.009329413
  25 20  0     -548.0766983845    -0.0004258996   0.004254981   0.002537348
  26 21  0     -548.0767154378    -0.0000170533   0.001839374   0.002302087
  27 22  0     -548.0767280126    -0.0000125748   0.000324220   0.000575042
  28 23  0     -548.0767285812    -0.0000005686   0.000179324   0.000233451
 DFT CODE IS SWITCHING BACK TO THE FINE GRID
          * * *   INITIATING DIIS PROCEDURE   * * *
  29 24  0     -548.0486072068     0.0281213744   0.032956375   0.015828320
  30 25  0     -548.0488548270    -0.0002476202   0.025423048   0.005345395

 SCF IS UNCONVERGED, TOO MANY ITERATIONS
     TIME TO FORM FOCK OPERATORS=       1.4 SECONDS (       0.0 SEC/ITER)
     TIME TO SOLVE SCF EQUATIONS=       0.0 SECONDS (       0.0 SEC/ITER)

 FINAL R-PBE ENERGY IS        0.0000000000 AFTER  30 ITERATIONS
 DFT EXCHANGE + CORRELATION ENERGY =       -42.0572574521
 TOTAL ELECTRON NUMBER             =        32.0000021897

          ------------
          EIGENVECTORS
          ------------

                      1          2          3          4          5
                  -88.2186   -18.8501   -18.8500    -7.8381    -5.8598
                     A1         B1         A1         A1         B1  
    1  S  1  S    1.002977   0.000000  -0.000055  -0.274144   0.000000
    2  S  1  S   -0.010269   0.000000  -0.000793   1.039630   0.000000
    3  S  1  S    0.001778   0.000000  -0.001593   0.040346   0.000000
    4  S  1  S   -0.000995   0.000000   0.004122  -0.012868   0.000000
    5  S  1  X    0.000000   0.000067   0.000000   0.000000   0.996935
    6  S  1  Y    0.000000   0.000000   0.000000   0.000000   0.000000
    7  S  1  Z    0.000036   0.000000  -0.000018   0.005703   0.000000
    8  S  1  X    0.000000   0.000156   0.000000   0.000000   0.008776
    9  S  1  Y    0.000000   0.000000   0.000000   0.000000   0.000000
   10  S  1  Z   -0.000007   0.000000   0.000034   0.000314   0.000000
   11  S  1  X    0.000000  -0.005660   0.000000   0.000000  -0.000018
   12  S  1  Y    0.000000   0.000000   0.000000   0.000000   0.000000
   13  S  1  Z   -0.000021   0.000000   0.000621  -0.000307   0.000000
   14  S  1 XX   -0.000036   0.000000   0.001362  -0.000087   0.000000
   15  S  1 YY    0.000019   0.000000  -0.000717   0.000055   0.000000
   16  S  1 ZZ    0.000017   0.000000  -0.000644   0.000031   0.000000
   17  S  1 XY    0.000000   0.000000   0.000000   0.000000   0.000000
   18  S  1 XZ    0.000000  -0.000624   0.000000   0.000000   0.000333
   19  S  1 YZ    0.000000   0.000000   0.000000   0.000000   0.000000
   20  O  2  S   -0.000003   0.703245   0.703187  -0.000015   0.000001
   21  O  2  S   -0.000027   0.025027   0.024246  -0.000103  -0.000004
   22  O  2  S    0.000111  -0.010582  -0.008355   0.000919   0.000102
   23  O  2  X    0.000013   0.000686   0.000606   0.000115   0.000060
   24  O  2  Y    0.000000   0.000000   0.000000   0.000000   0.000000
   25  O  2  Z   -0.000004  -0.000165  -0.000071  -0.000035  -0.000019
   26  O  2  X    0.000033  -0.002362  -0.001543   0.000104   0.000028
   27  O  2  Y    0.000000   0.000000   0.000000   0.000000   0.000000
   28  O  2  Z   -0.000001   0.000610   0.000149   0.000042   0.000015
   29  O  2 XX   -0.000013  -0.000193  -0.000249  -0.000309   0.000015
   30  O  2 YY    0.000007   0.000113   0.000138   0.000163  -0.000008
   31  O  2 ZZ    0.000006   0.000079   0.000111   0.000146  -0.000008
   32  O  2 XY    0.000000   0.000000   0.000000   0.000000   0.000000
   33  O  2 XZ    0.000005   0.000102   0.000082   0.000105  -0.000002
   34  O  2 YZ    0.000000   0.000000   0.000000   0.000000   0.000000
   35  O  3  S   -0.000003  -0.703245   0.703187  -0.000015  -0.000001
   36  O  3  S   -0.000027  -0.025027   0.024246  -0.000103   0.000004
   37  O  3  S    0.000111   0.010582  -0.008355   0.000919  -0.000102
   38  O  3  X   -0.000013   0.000686  -0.000606  -0.000115   0.000060
   39  O  3  Y    0.000000   0.000000   0.000000   0.000000   0.000000
   40  O  3  Z   -0.000004   0.000165  -0.000071  -0.000035   0.000019
   41  O  3  X   -0.000033  -0.002362   0.001543  -0.000104   0.000028
   42  O  3  Y    0.000000   0.000000   0.000000   0.000000   0.000000
   43  O  3  Z   -0.000001  -0.000610   0.000149   0.000042  -0.000015
   44  O  3 XX   -0.000013   0.000193  -0.000249  -0.000309  -0.000015
   45  O  3 YY    0.000007  -0.000113   0.000138   0.000163   0.000008
   46  O  3 ZZ    0.000006  -0.000079   0.000111   0.000146   0.000008
   47  O  3 XY    0.000000   0.000000   0.000000   0.000000   0.000000
   48  O  3 XZ   -0.000005   0.000102  -0.000082  -0.000105  -0.000002
   49  O  3 YZ    0.000000   0.000000   0.000000   0.000000   0.000000

                      6          7          8          9         10
                   -5.8563    -5.8559    -0.8854    -0.8692    -0.6800
                     B2         A1         A1         B1         A1  
    1  S  1  S    0.000000   0.001573   0.031325   0.000000   0.080613
    2  S  1  S    0.000000  -0.005999  -0.095049   0.000000  -0.235211
    3  S  1  S    0.000000  -0.000015   0.180948   0.000000   0.493199
    4  S  1  S    0.000000  -0.000111   0.168286   0.000000   0.486174
    5  S  1  X    0.000000   0.000000   0.000000   0.049043   0.000000
    6  S  1  Y    0.996959   0.000000   0.000000   0.000000   0.000000
    7  S  1  Z    0.000000   0.996950  -0.010152   0.000000  -0.004334
    8  S  1  X    0.000000   0.000000   0.000000  -0.100061   0.000000
    9  S  1  Y    0.008733   0.000000   0.000000   0.000000   0.000000
   10  S  1  Z    0.000000   0.008710   0.021779   0.000000   0.012643
   11  S  1  X    0.000000   0.000000   0.000000  -0.035377   0.000000
   12  S  1  Y   -0.000153   0.000000   0.000000   0.000000   0.000000
   13  S  1  Z    0.000000  -0.000157   0.007644   0.000000   0.000836
   14  S  1 XX    0.000000  -0.000223   0.026470   0.000000  -0.006414
   15  S  1 YY    0.000000  -0.000162  -0.014003   0.000000   0.003572
   16  S  1 ZZ    0.000000   0.000385  -0.012467   0.000000   0.002842
   17  S  1 XY    0.000000   0.000000   0.000000   0.000000   0.000000
   18  S  1 XZ    0.000000   0.000000   0.000000  -0.010096   0.000000
   19  S  1 YZ    0.000316   0.000000   0.000000   0.000000   0.000000
   20  O  2  S    0.000000  -0.000004  -0.145899  -0.157875   0.074055
   21  O  2  S    0.000000  -0.000041   0.296360   0.321743  -0.155994
   22  O  2  S    0.000000   0.000068   0.375026   0.408900  -0.224646
   23  O  2  X    0.000000  -0.000019   0.045393   0.038084   0.071365
   24  O  2  Y    0.000003   0.000000   0.000000   0.000000   0.000000
   25  O  2  Z    0.000000   0.000008  -0.007328  -0.006650  -0.010016
   26  O  2  X    0.000000   0.000060   0.025862   0.025117   0.031770
   27  O  2  Y   -0.000031   0.000000   0.000000   0.000000   0.000000
   28  O  2  Z    0.000000  -0.000046  -0.004800  -0.003890  -0.003280
   29  O  2 XX    0.000000   0.000011   0.005960   0.005451   0.005364
   30  O  2 YY    0.000000  -0.000009  -0.002171  -0.001816  -0.003269
   31  O  2 ZZ    0.000000  -0.000001  -0.003789  -0.003635  -0.002095
   32  O  2 XY   -0.000026   0.000000   0.000000   0.000000   0.000000
   33  O  2 XZ    0.000000  -0.000031   0.000164   0.000504  -0.002459
   34  O  2 YZ    0.000004   0.000000   0.000000   0.000000   0.000000
   35  O  3  S    0.000000  -0.000004  -0.145899   0.157875   0.074055
   36  O  3  S    0.000000  -0.000041   0.296360  -0.321743  -0.155994
   37  O  3  S    0.000000   0.000068   0.375026  -0.408900  -0.224646
   38  O  3  X    0.000000   0.000019  -0.045393   0.038084  -0.071365
   39  O  3  Y    0.000003   0.000000   0.000000   0.000000   0.000000
   40  O  3  Z    0.000000   0.000008  -0.007328   0.006650  -0.010016
   41  O  3  X    0.000000  -0.000060  -0.025862   0.025117  -0.031770
   42  O  3  Y   -0.000031   0.000000   0.000000   0.000000   0.000000
   43  O  3  Z    0.000000  -0.000046  -0.004800   0.003890  -0.003280
   44  O  3 XX    0.000000   0.000011   0.005960  -0.005451   0.005364
   45  O  3 YY    0.000000  -0.000009  -0.002171   0.001816  -0.003269
   46  O  3 ZZ    0.000000  -0.000001  -0.003789   0.003635  -0.002095
   47  O  3 XY    0.000026   0.000000   0.000000   0.000000   0.000000
   48  O  3 XZ    0.000000   0.000031  -0.000164   0.000504   0.002459
   49  O  3 YZ    0.000004   0.000000   0.000000   0.000000   0.000000

                     11         12         13         14         15
                   -0.4146    -0.3601    -0.3588    -0.3072    -0.3030
                     B1         A1         B2         A2         B1  
    1  S  1  S    0.000000  -0.007394   0.000000   0.000000   0.000000
    2  S  1  S    0.000000   0.023373   0.000000   0.000000   0.000000
    3  S  1  S    0.000000  -0.044645   0.000000   0.000000   0.000000
    4  S  1  S    0.000000  -0.076949   0.000000   0.000000   0.000000
    5  S  1  X   -0.187118   0.000000   0.000000   0.000000  -0.018070
    6  S  1  Y    0.000000   0.000000  -0.211638   0.000000   0.000000
    7  S  1  Z    0.000000  -0.211613   0.000000   0.000000   0.000000
    8  S  1  X    0.440405   0.000000   0.000000   0.000000   0.041189
    9  S  1  Y    0.000000   0.000000   0.499457   0.000000   0.000000
   10  S  1  Z    0.000000   0.498976   0.000000   0.000000   0.000000
   11  S  1  X    0.175975   0.000000   0.000000   0.000000   0.052451
   12  S  1  Y    0.000000   0.000000   0.355282   0.000000   0.000000
   13  S  1  Z    0.000000   0.349344   0.000000   0.000000   0.000000
   14  S  1 XX    0.000000   0.006303   0.000000   0.000000   0.000000
   15  S  1 YY    0.000000  -0.012919   0.000000   0.000000   0.000000
   16  S  1 ZZ    0.000000   0.006615   0.000000   0.000000   0.000000
   17  S  1 XY    0.000000   0.000000   0.000000  -0.052708   0.000000
   18  S  1 XZ    0.016996   0.000000   0.000000   0.000000  -0.051497
   19  S  1 YZ    0.000000   0.000000   0.011274   0.000000   0.000000
   20  O  2  S   -0.040018   0.006041   0.000000   0.000000  -0.002963
   21  O  2  S    0.092816  -0.012585   0.000000   0.000000   0.003556
   22  O  2  S    0.139144  -0.025991   0.000000   0.000000   0.023166
   23  O  2  X   -0.338821   0.160301   0.000000   0.000000   0.102158
   24  O  2  Y    0.000000   0.000000   0.286084   0.479744   0.000000
   25  O  2  Z    0.049245   0.238256   0.000000   0.000000   0.466659
   26  O  2  X   -0.221900   0.102746   0.000000   0.000000   0.078391
   27  O  2  Y    0.000000   0.000000   0.183338   0.335158   0.000000
   28  O  2  Z    0.032171   0.152506   0.000000   0.000000   0.325328
   29  O  2 XX   -0.013553   0.005675   0.000000   0.000000   0.002571
   30  O  2 YY    0.007412  -0.001664   0.000000   0.000000   0.000101
   31  O  2 ZZ    0.006141  -0.004011   0.000000   0.000000  -0.002672
   32  O  2 XY    0.000000   0.000000   0.009258   0.008295   0.000000
   33  O  2 XZ    0.005041   0.007294   0.000000   0.000000   0.007912
   34  O  2 YZ    0.000000   0.000000  -0.001613  -0.001608   0.000000
   35  O  3  S    0.040018   0.006041   0.000000   0.000000   0.002963
   36  O  3  S   -0.092816  -0.012585   0.000000   0.000000  -0.003556
   37  O  3  S   -0.139144  -0.025991   0.000000   0.000000  -0.023166
   38  O  3  X   -0.338821  -0.160301   0.000000   0.000000   0.102158
   39  O  3  Y    0.000000   0.000000   0.286084  -0.479744   0.000000
   40  O  3  Z   -0.049245   0.238256   0.000000   0.000000  -0.466659
   41  O  3  X   -0.221900  -0.102746   0.000000   0.000000   0.078391
   42  O  3  Y    0.000000   0.000000   0.183338  -0.335158   0.000000
   43  O  3  Z   -0.032171   0.152506   0.000000   0.000000  -0.325328
   44  O  3 XX    0.013553   0.005675   0.000000   0.000000  -0.002571
   45  O  3 YY   -0.007412  -0.001664   0.000000   0.000000  -0.000101
   46  O  3 ZZ   -0.006141  -0.004011   0.000000   0.000000   0.002672
   47  O  3 XY    0.000000   0.000000  -0.009258   0.008295   0.000000
   48  O  3 XZ    0.005041  -0.007294   0.000000   0.000000   0.007912
   49  O  3 YZ    0.000000   0.000000  -0.001613   0.001608   0.000000

                     16         17         18         19         20
                   -0.2855    -0.2590    -0.2506    -0.1023     0.3592
                     A1         B2         A1         B1         B1  
    1  S  1  S   -0.022218   0.000000   0.009611   0.000000   0.000000
    2  S  1  S    0.072358   0.000000  -0.026206   0.000000   0.000000
    3  S  1  S   -0.134193   0.000000   0.065550   0.000000   0.000000
    4  S  1  S   -0.275216   0.000000   0.102337   0.000000   0.000000
    5  S  1  X    0.000000   0.000000   0.000000  -0.246409   0.227402
    6  S  1  Y    0.000000  -0.192952   0.000000   0.000000   0.000000
    7  S  1  Z   -0.016433   0.000000  -0.192754   0.000000   0.000000
    8  S  1  X    0.000000   0.000000   0.000000   0.633150  -0.948045
    9  S  1  Y    0.000000   0.474713   0.000000   0.000000   0.000000
   10  S  1  Z    0.041210   0.000000   0.475372   0.000000   0.000000
   11  S  1  X    0.000000   0.000000   0.000000   0.593409   1.643809
   12  S  1  Y    0.000000   0.325573   0.000000   0.000000   0.000000
   13  S  1  Z   -0.003526   0.000000   0.337394   0.000000   0.000000
   14  S  1 XX    0.092697   0.000000  -0.034068   0.000000   0.000000
   15  S  1 YY   -0.045248   0.000000   0.019500   0.000000   0.000000
   16  S  1 ZZ   -0.047449   0.000000   0.014567   0.000000   0.000000
   17  S  1 XY    0.000000   0.000000   0.000000   0.000000   0.000000
   18  S  1 XZ    0.000000   0.000000   0.000000  -0.035970  -0.332842
   19  S  1 YZ    0.000000  -0.002479   0.000000   0.000000   0.000000
   20  O  2  S    0.001235   0.000000   0.005718  -0.039048  -0.036194
   21  O  2  S   -0.007467   0.000000  -0.011148   0.084419   0.049596
   22  O  2  S    0.019417   0.000000  -0.036724   0.241512   0.492171
   23  O  2  X    0.390084   0.000000  -0.242194   0.363856  -0.160801
   24  O  2  Y    0.000000  -0.400958   0.000000   0.000000   0.000000
   25  O  2  Z   -0.281474   0.000000  -0.321440  -0.115977  -0.108031
   26  O  2  X    0.278246   0.000000  -0.174520   0.315773   0.399431
   27  O  2  Y    0.000000  -0.280704   0.000000   0.000000   0.000000
   28  O  2  Z   -0.197264   0.000000  -0.224681  -0.089396  -0.015619
   29  O  2 XX    0.006472   0.000000  -0.001170  -0.005961   0.046345
   30  O  2 YY   -0.004018   0.000000   0.000594   0.003639  -0.021398
   31  O  2 ZZ   -0.002454   0.000000   0.000576   0.002323  -0.024947
   32  O  2 XY    0.000000  -0.000190   0.000000   0.000000   0.000000
   33  O  2 XZ   -0.005693   0.000000   0.001082   0.004195   0.002861
   34  O  2 YZ    0.000000   0.000171   0.000000   0.000000   0.000000
   35  O  3  S    0.001235   0.000000   0.005718   0.039048   0.036194
   36  O  3  S   -0.007467   0.000000  -0.011148  -0.084419  -0.049596
   37  O  3  S    0.019417   0.000000  -0.036724  -0.241512  -0.492171
   38  O  3  X   -0.390084   0.000000   0.242194   0.363856  -0.160801
   39  O  3  Y    0.000000  -0.400958   0.000000   0.000000   0.000000
   40  O  3  Z   -0.281474   0.000000  -0.321440   0.115977   0.108031
   41  O  3  X   -0.278246   0.000000   0.174520   0.315773   0.399431
   42  O  3  Y    0.000000  -0.280704   0.000000   0.000000   0.000000
   43  O  3  Z   -0.197264   0.000000  -0.224681   0.089396   0.015619
   44  O  3 XX    0.006472   0.000000  -0.001170   0.005961  -0.046345
   45  O  3 YY   -0.004018   0.000000   0.000594  -0.003639   0.021398
   46  O  3 ZZ   -0.002454   0.000000   0.000576  -0.002323   0.024947
   47  O  3 XY    0.000000   0.000190   0.000000   0.000000   0.000000
   48  O  3 XZ    0.005693   0.000000  -0.001082   0.004195   0.002861
   49  O  3 YZ    0.000000   0.000171   0.000000   0.000000   0.000000

                     21         22         23         24         25
                    0.3689     0.3705     0.3985     0.4599     0.5003
                     A1         B2         A1         A2         B1  
    1  S  1  S   -0.019685   0.000000  -0.102943   0.000000   0.000000
    2  S  1  S   -0.085814   0.000000  -0.359489   0.000000   0.000000
    3  S  1  S   -0.323361   0.000000  -1.575911   0.000000   0.000000
    4  S  1  S    0.430354   0.000000   1.797117   0.000000   0.000000
    5  S  1  X    0.000000   0.000000   0.000000   0.000000   0.103683
    6  S  1  Y    0.000000   0.299767   0.000000   0.000000   0.000000
    7  S  1  Z    0.289266   0.000000  -0.072312   0.000000   0.000000
    8  S  1  X    0.000000   0.000000   0.000000   0.000000  -0.454459
    9  S  1  Y    0.000000  -1.150657   0.000000   0.000000   0.000000
   10  S  1  Z   -1.111838   0.000000   0.275888   0.000000   0.000000
   11  S  1  X    0.000000   0.000000   0.000000   0.000000   0.870091
   12  S  1  Y    0.000000   1.189959   0.000000   0.000000   0.000000
   13  S  1  Z    1.170452   0.000000  -0.253929   0.000000   0.000000
   14  S  1 XX   -0.124794   0.000000  -0.404600   0.000000   0.000000
   15  S  1 YY    0.098252   0.000000   0.197748   0.000000   0.000000
   16  S  1 ZZ    0.026542   0.000000   0.206852   0.000000   0.000000
   17  S  1 XY    0.000000   0.000000   0.000000   0.854841   0.000000
   18  S  1 XZ    0.000000   0.000000   0.000000   0.000000   0.788659
   19  S  1 YZ    0.000000  -0.039217   0.000000   0.000000   0.000000
   20  O  2  S    0.005083   0.000000   0.009090   0.000000  -0.032064
   21  O  2  S    0.004344   0.000000  -0.003647   0.000000   0.139559
   22  O  2  S   -0.102179   0.000000  -0.140049   0.000000   0.194725
   23  O  2  X    0.033032   0.000000   0.086381   0.000000   0.054899
   24  O  2  Y    0.000000  -0.123367   0.000000   0.316536   0.000000
   25  O  2  Z   -0.139298   0.000000  -0.029299   0.000000   0.271024
   26  O  2  X   -0.092842   0.000000  -0.155756   0.000000   0.175543
   27  O  2  Y    0.000000  -0.035593   0.000000  -0.241408   0.000000
   28  O  2  Z   -0.013339   0.000000   0.059446   0.000000  -0.274174
   29  O  2 XX   -0.015729   0.000000  -0.036941   0.000000  -0.005865
   30  O  2 YY    0.009160   0.000000   0.020194   0.000000  -0.003127
   31  O  2 ZZ    0.006569   0.000000   0.016746   0.000000   0.008993
   32  O  2 XY    0.000000   0.003164   0.000000  -0.040837   0.000000
   33  O  2 XZ    0.009887   0.000000   0.016676   0.000000  -0.034935
   34  O  2 YZ    0.000000  -0.000705   0.000000   0.008126   0.000000
   35  O  3  S    0.005083   0.000000   0.009090   0.000000   0.032064
   36  O  3  S    0.004344   0.000000  -0.003647   0.000000  -0.139559
   37  O  3  S   -0.102179   0.000000  -0.140049   0.000000  -0.194725
   38  O  3  X   -0.033032   0.000000  -0.086381   0.000000   0.054899
   39  O  3  Y    0.000000  -0.123367   0.000000  -0.316536   0.000000
   40  O  3  Z   -0.139298   0.000000  -0.029299   0.000000  -0.271024
   41  O  3  X    0.092842   0.000000   0.155756   0.000000   0.175543
   42  O  3  Y    0.000000  -0.035593   0.000000   0.241408   0.000000
   43  O  3  Z   -0.013339   0.000000   0.059446   0.000000   0.274174
   44  O  3 XX   -0.015729   0.000000  -0.036941   0.000000   0.005865
   45  O  3 YY    0.009160   0.000000   0.020194   0.000000   0.003127
   46  O  3 ZZ    0.006569   0.000000   0.016746   0.000000  -0.008993
   47  O  3 XY    0.000000  -0.003164   0.000000  -0.040837   0.000000
   48  O  3 XZ   -0.009887   0.000000  -0.016676   0.000000  -0.034935
   49  O  3 YZ    0.000000  -0.000705   0.000000  -0.008126   0.000000

                     26         27         28         29         30
                    0.5048     0.5049     0.6249     0.7842     0.7897
                     A1         B2         A1         B2         A1  
    1  S  1  S    0.002401   0.000000  -0.061100   0.000000  -0.004188
    2  S  1  S    0.008685   0.000000  -0.226437   0.000000   0.010176
    3  S  1  S    0.037190   0.000000  -0.956552   0.000000  -0.034625
    4  S  1  S   -0.043272   0.000000   1.092890   0.000000  -0.098432
    5  S  1  X    0.000000   0.000000   0.000000   0.000000   0.000000
    6  S  1  Y    0.000000   0.009895   0.000000  -0.039870   0.000000
    7  S  1  Z    0.010050   0.000000   0.022710   0.000000  -0.031698
    8  S  1  X    0.000000   0.000000   0.000000   0.000000   0.000000
    9  S  1  Y    0.000000  -0.032545   0.000000   0.201997   0.000000
   10  S  1  Z   -0.032905   0.000000  -0.103155   0.000000   0.166108
   11  S  1  X    0.000000   0.000000   0.000000   0.000000   0.000000
   12  S  1  Y    0.000000   0.004359   0.000000  -0.484229   0.000000
   13  S  1  Z    0.003171   0.000000   0.176793   0.000000  -0.460259
   14  S  1 XX   -0.030923   0.000000   0.785800   0.000000   0.083529
   15  S  1 YY   -0.843320   0.000000  -0.435072   0.000000   0.054712
   16  S  1 ZZ    0.874243   0.000000  -0.350728   0.000000  -0.138240
   17  S  1 XY    0.000000   0.000000   0.000000   0.000000   0.000000
   18  S  1 XZ    0.000000   0.000000   0.000000   0.000000   0.000000
   19  S  1 YZ    0.000000   0.992587   0.000000  -0.116347   0.000000
   20  O  2  S   -0.000813   0.000000   0.041741   0.000000  -0.005531
   21  O  2  S    0.004463   0.000000  -0.289638   0.000000   0.059187
   22  O  2  S    0.001511   0.000000   0.048233   0.000000  -0.019126
   23  O  2  X   -0.010714   0.000000  -0.208994   0.000000  -0.270793
   24  O  2  Y    0.000000  -0.071491   0.000000  -0.623266   0.000000
   25  O  2  Z   -0.072159   0.000000   0.113077   0.000000  -0.561239
   26  O  2  X    0.015317   0.000000  -0.077764   0.000000   0.354926
   27  O  2  Y    0.000000   0.059117   0.000000   0.804382   0.000000
   28  O  2  Z    0.058077   0.000000  -0.073945   0.000000   0.724649
   29  O  2 XX    0.002807   0.000000   0.039366   0.000000  -0.000633
   30  O  2 YY   -0.006783   0.000000  -0.022959   0.000000  -0.001006
   31  O  2 ZZ    0.003977   0.000000  -0.016407   0.000000   0.001640
   32  O  2 XY    0.000000   0.009709   0.000000  -0.014629   0.000000
   33  O  2 XZ    0.009545   0.000000  -0.022528   0.000000  -0.016732
   34  O  2 YZ    0.000000   0.006248   0.000000   0.001125   0.000000
   35  O  3  S   -0.000813   0.000000   0.041741   0.000000  -0.005531
   36  O  3  S    0.004463   0.000000  -0.289638   0.000000   0.059187
   37  O  3  S    0.001511   0.000000   0.048233   0.000000  -0.019126
   38  O  3  X    0.010714   0.000000   0.208994   0.000000   0.270793
   39  O  3  Y    0.000000  -0.071491   0.000000  -0.623266   0.000000
   40  O  3  Z   -0.072159   0.000000   0.113077   0.000000  -0.561239
   41  O  3  X   -0.015317   0.000000   0.077764   0.000000  -0.354926
   42  O  3  Y    0.000000   0.059117   0.000000   0.804382   0.000000
   43  O  3  Z    0.058077   0.000000  -0.073945   0.000000   0.724649
   44  O  3 XX    0.002807   0.000000   0.039366   0.000000  -0.000633
   45  O  3 YY   -0.006783   0.000000  -0.022959   0.000000  -0.001006
   46  O  3 ZZ    0.003977   0.000000  -0.016407   0.000000   0.001640
   47  O  3 XY    0.000000  -0.009709   0.000000   0.014629   0.000000
   48  O  3 XZ   -0.009545   0.000000   0.022528   0.000000   0.016732
   49  O  3 YZ    0.000000   0.006248   0.000000   0.001125   0.000000

                     31         32         33         34         35
                    0.7915     0.7940     0.8195     0.8280     1.4212
                     B1         A2         A1         B1         A1  
    1  S  1  S    0.000000   0.000000  -0.009268   0.000000   0.025027
    2  S  1  S    0.000000   0.000000   0.044602   0.000000   0.228335
    3  S  1  S    0.000000   0.000000  -0.051810   0.000000   0.562614
    4  S  1  S    0.000000   0.000000  -0.403605   0.000000  -1.173203
    5  S  1  X   -0.001345   0.000000   0.000000  -0.120197   0.000000
    6  S  1  Y    0.000000   0.000000   0.000000   0.000000   0.000000
    7  S  1  Z    0.000000   0.000000   0.027261   0.000000   0.002620
    8  S  1  X    0.014245   0.000000   0.000000   0.520430   0.000000
    9  S  1  Y    0.000000   0.000000   0.000000   0.000000   0.000000
   10  S  1  Z    0.000000   0.000000  -0.124125   0.000000   0.002921
   11  S  1  X   -0.033861   0.000000   0.000000  -0.063614   0.000000
   12  S  1  Y    0.000000   0.000000   0.000000   0.000000   0.000000
   13  S  1  Z    0.000000   0.000000   0.099869   0.000000  -0.166658
   14  S  1 XX    0.000000   0.000000  -0.311111   0.000000  -0.475765
   15  S  1 YY    0.000000   0.000000   0.140208   0.000000   0.251808
   16  S  1 ZZ    0.000000   0.000000   0.170903   0.000000   0.223957
   17  S  1 XY    0.000000   0.534600   0.000000   0.000000   0.000000
   18  S  1 XZ    0.519169   0.000000   0.000000   0.031691   0.000000
   19  S  1 YZ    0.000000   0.000000   0.000000   0.000000   0.000000
   20  O  2  S   -0.004407   0.000000  -0.028593  -0.017854   0.023764
   21  O  2  S    0.042596   0.000000   0.311593   0.223725  -1.041740
   22  O  2  S   -0.034020   0.000000  -0.201258  -0.186460   1.227193
   23  O  2  X   -0.106831   0.000000  -0.522642  -0.583991  -0.153641
   24  O  2  Y    0.000000  -0.560345   0.000000   0.000000   0.000000
   25  O  2  Z   -0.554158   0.000000   0.241737   0.134353   0.010037
   26  O  2  X    0.164427   0.000000   0.770665   0.780171   0.487801
   27  O  2  Y    0.000000   0.703047   0.000000   0.000000   0.000000
   28  O  2  Z    0.685286   0.000000  -0.330965  -0.172085  -0.047186
   29  O  2 XX   -0.025174   0.000000  -0.043320  -0.041811  -0.178006
   30  O  2 YY    0.007473   0.000000   0.023915   0.022053   0.094967
   31  O  2 ZZ    0.017701   0.000000   0.019405   0.019758   0.083039
   32  O  2 XY    0.000000  -0.035539   0.000000   0.000000   0.000000
   33  O  2 XZ   -0.026503   0.000000   0.021170   0.013072   0.057105
   34  O  2 YZ    0.000000   0.007003   0.000000   0.000000   0.000000
   35  O  3  S    0.004407   0.000000  -0.028593   0.017854   0.023764
   36  O  3  S   -0.042596   0.000000   0.311593  -0.223725  -1.041740
   37  O  3  S    0.034020   0.000000  -0.201258   0.186460   1.227193
   38  O  3  X   -0.106831   0.000000   0.522642  -0.583991   0.153641
   39  O  3  Y    0.000000   0.560345   0.000000   0.000000   0.000000
   40  O  3  Z    0.554158   0.000000   0.241737  -0.134353   0.010037
   41  O  3  X    0.164427   0.000000  -0.770665   0.780171  -0.487801
   42  O  3  Y    0.000000  -0.703047   0.000000   0.000000   0.000000
   43  O  3  Z   -0.685286   0.000000  -0.330965   0.172085  -0.047186
   44  O  3 XX    0.025174   0.000000  -0.043320   0.041811  -0.178006
   45  O  3 YY   -0.007473   0.000000   0.023915  -0.022053   0.094967
   46  O  3 ZZ   -0.017701   0.000000   0.019405  -0.019758   0.083039
   47  O  3 XY    0.000000  -0.035539   0.000000   0.000000   0.000000
   48  O  3 XZ   -0.026503   0.000000  -0.021170   0.013072  -0.057105
   49  O  3 YZ    0.000000  -0.007003   0.000000   0.000000   0.000000

                     36         37         38         39         40
                    1.5980     2.0769     2.0771     2.0773     2.0778
                     B1         B2         A2         B1         A1  
    1  S  1  S    0.000000   0.000000   0.000000   0.000000  -0.000382
    2  S  1  S    0.000000   0.000000   0.000000   0.000000  -0.006590
    3  S  1  S    0.000000   0.000000   0.000000   0.000000  -0.012728
    4  S  1  S    0.000000   0.000000   0.000000   0.000000   0.032050
    5  S  1  X   -0.010421   0.000000   0.000000  -0.000977   0.000000
    6  S  1  Y    0.000000  -0.001744   0.000000   0.000000   0.000000
    7  S  1  Z    0.000000   0.000000   0.000000   0.000000   0.000766
    8  S  1  X   -0.075827   0.000000   0.000000   0.000849   0.000000
    9  S  1  Y    0.000000   0.022073   0.000000   0.000000   0.000000
   10  S  1  Z    0.000000   0.000000   0.000000   0.000000  -0.014489
   11  S  1  X    1.288941   0.000000   0.000000   0.014695   0.000000
   12  S  1  Y    0.000000  -0.073812   0.000000   0.000000   0.000000
   13  S  1  Z    0.000000   0.000000   0.000000   0.000000   0.056540
   14  S  1 XX    0.000000   0.000000   0.000000   0.000000   0.003048
   15  S  1 YY    0.000000   0.000000   0.000000   0.000000  -0.026186
   16  S  1 ZZ    0.000000   0.000000   0.000000   0.000000   0.023138
   17  S  1 XY    0.000000   0.000000   0.047038   0.000000   0.000000
   18  S  1 XZ    0.200195   0.000000   0.000000  -0.039866   0.000000
   19  S  1 YZ    0.000000  -0.030738   0.000000   0.000000   0.000000
   20  O  2  S    0.015585   0.000000   0.000000   0.000044  -0.000003
   21  O  2  S   -1.192411   0.000000   0.000000  -0.006045   0.016524
   22  O  2  S    1.658301   0.000000   0.000000   0.010282  -0.024354
   23  O  2  X   -0.162434   0.000000   0.000000  -0.000945   0.006479
   24  O  2  Y    0.000000  -0.013668  -0.006255   0.000000   0.000000
   25  O  2  Z    0.048974   0.000000   0.000000   0.005946   0.009412
   26  O  2  X    0.590765   0.000000   0.000000   0.003021  -0.017742
   27  O  2  Y    0.000000   0.025405   0.008990   0.000000   0.000000
   28  O  2  Z   -0.153062   0.000000   0.000000  -0.008773  -0.016759
   29  O  2 XX   -0.127518   0.000000   0.000000  -0.074066  -0.121173
   30  O  2 YY    0.065685   0.000000   0.000000   0.575507   0.576079
   31  O  2 ZZ    0.061833   0.000000   0.000000  -0.501441  -0.454906
   32  O  2 XY    0.000000   0.479741   0.347434   0.000000   0.000000
   33  O  2 XZ    0.033308   0.000000   0.000000  -0.328460  -0.362604
   34  O  2 YZ    0.000000   0.520439   0.615814   0.000000   0.000000
   35  O  3  S   -0.015585   0.000000   0.000000  -0.000044  -0.000003
   36  O  3  S    1.192411   0.000000   0.000000   0.006045   0.016524
   37  O  3  S   -1.658301   0.000000   0.000000  -0.010282  -0.024354
   38  O  3  X   -0.162434   0.000000   0.000000  -0.000945  -0.006479
   39  O  3  Y    0.000000  -0.013668   0.006255   0.000000   0.000000
   40  O  3  Z   -0.048974   0.000000   0.000000  -0.005946   0.009412
   41  O  3  X    0.590765   0.000000   0.000000   0.003021   0.017742
   42  O  3  Y    0.000000   0.025405  -0.008990   0.000000   0.000000
   43  O  3  Z    0.153062   0.000000   0.000000   0.008773  -0.016759
   44  O  3 XX    0.127518   0.000000   0.000000   0.074066  -0.121173
   45  O  3 YY   -0.065685   0.000000   0.000000  -0.575507   0.576079
   46  O  3 ZZ   -0.061833   0.000000   0.000000   0.501441  -0.454906
   47  O  3 XY    0.000000  -0.479741   0.347434   0.000000   0.000000
   48  O  3 XZ    0.033308   0.000000   0.000000  -0.328460   0.362604
   49  O  3 YZ    0.000000   0.520439  -0.615814   0.000000   0.000000

                     41         42         43         44         45
                    2.0872     2.0916     2.0966     2.0971     2.1765
                     B2         A1         B1         A2         B1  
    1  S  1  S    0.000000   0.000642   0.000000   0.000000   0.000000
    2  S  1  S    0.000000   0.012391   0.000000   0.000000   0.000000
    3  S  1  S    0.000000   0.023147   0.000000   0.000000   0.000000
    4  S  1  S    0.000000  -0.059751   0.000000   0.000000   0.000000
    5  S  1  X    0.000000   0.000000   0.013058   0.000000  -0.078583
    6  S  1  Y   -0.002554   0.000000   0.000000   0.000000   0.000000
    7  S  1  Z    0.000000  -0.001740   0.000000   0.000000   0.000000
    8  S  1  X    0.000000   0.000000  -0.033012   0.000000   0.233600
    9  S  1  Y    0.033646   0.000000   0.000000   0.000000   0.000000
   10  S  1  Z    0.000000   0.033523   0.000000   0.000000   0.000000
   11  S  1  X    0.000000   0.000000  -0.079426   0.000000   0.302848
   12  S  1  Y   -0.113641   0.000000   0.000000   0.000000   0.000000
   13  S  1  Z    0.000000  -0.129536   0.000000   0.000000   0.000000
   14  S  1 XX    0.000000   0.001957   0.000000   0.000000   0.000000
   15  S  1 YY    0.000000   0.015453   0.000000   0.000000   0.000000
   16  S  1 ZZ    0.000000  -0.017409   0.000000   0.000000   0.000000
   17  S  1 XY    0.000000   0.000000   0.000000   0.142399   0.000000
   18  S  1 XZ    0.000000   0.000000   0.108981   0.000000   0.162894
   19  S  1 YZ   -0.013246   0.000000   0.000000   0.000000   0.000000
   20  O  2  S    0.000000   0.000540   0.000452   0.000000  -0.000417
   21  O  2  S    0.000000  -0.032005   0.051438   0.000000  -0.286706
   22  O  2  S    0.000000   0.044861  -0.082744   0.000000   0.421842
   23  O  2  X    0.000000  -0.013030   0.014348   0.000000  -0.091773
   24  O  2  Y   -0.020446   0.000000   0.000000  -0.018735   0.000000
   25  O  2  Z    0.000000  -0.021379  -0.020230   0.000000   0.011039
   26  O  2  X    0.000000   0.033997  -0.039846   0.000000   0.255806
   27  O  2  Y    0.037438   0.000000   0.000000   0.027104   0.000000
   28  O  2  Z    0.000000   0.037753   0.032391   0.000000  -0.038238
   29  O  2 XX    0.000000   0.235612   0.077687   0.000000   0.693882
   30  O  2 YY    0.000000   0.212045   0.251692   0.000000  -0.321961
   31  O  2 ZZ    0.000000  -0.447657  -0.329379   0.000000  -0.371921
   32  O  2 XY    0.522878   0.000000   0.000000   0.615348   0.000000
   33  O  2 XZ    0.000000   0.550012   0.617384   0.000000  -0.102499
   34  O  2 YZ   -0.478782   0.000000   0.000000  -0.347486   0.000000
   35  O  3  S    0.000000   0.000540  -0.000452   0.000000   0.000417
   36  O  3  S    0.000000  -0.032005  -0.051438   0.000000   0.286706
   37  O  3  S    0.000000   0.044861   0.082744   0.000000  -0.421842
   38  O  3  X    0.000000   0.013030   0.014348   0.000000  -0.091773
   39  O  3  Y   -0.020446   0.000000   0.000000   0.018735   0.000000
   40  O  3  Z    0.000000  -0.021379   0.020230   0.000000  -0.011039
   41  O  3  X    0.000000  -0.033997  -0.039846   0.000000   0.255806
   42  O  3  Y    0.037438   0.000000   0.000000  -0.027104   0.000000
   43  O  3  Z    0.000000   0.037753  -0.032391   0.000000   0.038238
   44  O  3 XX    0.000000   0.235612  -0.077687   0.000000  -0.693882
   45  O  3 YY    0.000000   0.212045  -0.251692   0.000000   0.321961
   46  O  3 ZZ    0.000000  -0.447657   0.329379   0.000000   0.371921
   47  O  3 XY   -0.522878   0.000000   0.000000   0.615348   0.000000
   48  O  3 XZ    0.000000  -0.550012   0.617384   0.000000  -0.102499
   49  O  3 YZ   -0.478782   0.000000   0.000000   0.347486   0.000000

                     46
                    2.3368
                     A1  
    1  S  1  S   -0.006335
    2  S  1  S   -0.146739
    3  S  1  S   -0.260469
    4  S  1  S    0.710826
    5  S  1  X    0.000000
    6  S  1  Y    0.000000
    7  S  1  Z   -0.015022
    8  S  1  X    0.000000
    9  S  1  Y    0.000000
   10  S  1  Z    0.047022
   11  S  1  X    0.000000
   12  S  1  Y    0.000000
   13  S  1  Z    0.059757
   14  S  1 XX    0.501510
   15  S  1 YY   -0.260715
   16  S  1 ZZ   -0.240794
   17  S  1 XY    0.000000
   18  S  1 XZ    0.000000
   19  S  1 YZ    0.000000
   20  O  2  S    0.003480
   21  O  2  S    0.342415
   22  O  2  S   -0.488051
   23  O  2  X    0.099730
   24  O  2  Y    0.000000
   25  O  2  Z   -0.020524
   26  O  2  X   -0.343042
   27  O  2  Y    0.000000
   28  O  2  Z    0.063453
   29  O  2 XX   -0.649660
   30  O  2 YY    0.347233
   31  O  2 ZZ    0.302426
   32  O  2 XY    0.000000
   33  O  2 XZ    0.260793
   34  O  2 YZ    0.000000
   35  O  3  S    0.003480
   36  O  3  S    0.342415
   37  O  3  S   -0.488051
   38  O  3  X   -0.099730
   39  O  3  Y    0.000000
   40  O  3  Z   -0.020524
   41  O  3  X    0.343042
   42  O  3  Y    0.000000
   43  O  3  Z    0.063453
   44  O  3 XX   -0.649660
   45  O  3 YY    0.347233
   46  O  3 ZZ    0.302426
   47  O  3 XY    0.000000
   48  O  3 XZ   -0.260793
   49  O  3 YZ    0.000000
 ...... END OF RHF CALCULATION ......
 STEP CPU TIME =     1.40 TOTAL CPU TIME =        1.6 (    0.0 MIN)
 TOTAL WALL CLOCK TIME=        1.6 SECONDS, CPU UTILIZATION IS 100.00%

     ---------------------------------------------------------------------
     PROPERTIES FOR THE PBE      DFT FUNCTIONAL (RHF  TYPE) DENSITY MATRIX
     ---------------------------------------------------------------------

          -----------------
          ENERGY COMPONENTS
          -----------------

         WAVEFUNCTION NORMALIZATION =       1.0000000000

                ONE ELECTRON ENERGY =    -907.2655982974
                TWO ELECTRON ENERGY =     830.9334598142
           NUCLEAR REPULSION ENERGY =      76.3321384832
                                      ------------------
                       TOTAL ENERGY =       0.0000000000

 ELECTRON-ELECTRON POTENTIAL ENERGY =     830.9334598142
  NUCLEUS-ELECTRON POTENTIAL ENERGY =   -1453.8666890059
   NUCLEUS-NUCLEUS POTENTIAL ENERGY =      76.3321384832
                                      ------------------
             TOTAL POTENTIAL ENERGY =    -546.6010907085
               TOTAL KINETIC ENERGY =     546.6010907085
                 VIRIAL RATIO (V/T) =       1.0000000000

          ---------------------------------------
          MULLIKEN AND LOWDIN POPULATION ANALYSES
          ---------------------------------------

     ATOMIC MULLIKEN POPULATION IN EACH MOLECULAR ORBITAL

                      1          2          3          4          5

                  2.000000   2.000000   2.000000   2.000000   2.000000

    1             1.999999   0.000724   0.000175   1.999939   2.000008
    2             0.000001   0.999638   0.999913   0.000031  -0.000004
    3             0.000001   0.999638   0.999913   0.000031  -0.000004

                      6          7          8          9         10

                  2.000000   2.000000   2.000000   2.000000   2.000000

    1             2.000001   1.999999   0.328841   0.095289   1.568758
    2             0.000000   0.000001   0.835580   0.952355   0.215621
    3             0.000000   0.000001   0.835580   0.952355   0.215621

                     11         12         13         14         15

                  2.000000   2.000000   2.000000   2.000000   2.000000

    1             0.719550   1.216842   1.217289   0.015956   0.027779
    2             0.640225   0.391579   0.391356   0.992022   0.986111
    3             0.640225   0.391579   0.391356   0.992022   0.986111

                     16

                  2.000000

    1             0.149052
    2             0.925474
    3             0.925474

               ----- POPULATIONS IN EACH AO -----
                             MULLIKEN      LOWDIN
              1  S  1  S      2.00020     1.99619
              2  S  1  S      2.01121     1.97694
              3  S  1  S      1.04098     0.68008
              4  S  1  S      0.93625     0.58545
              5  S  1  X      1.99601     1.95169
              6  S  1  Y      1.99629     1.95622
              7  S  1  Z      1.99633     1.95646
              8  S  1  X      0.59863     0.55961
              9  S  1  Y      0.67914     0.66855
             10  S  1  Z      0.68594     0.67425
             11  S  1  X      0.23041     0.37377
             12  S  1  Y      0.54138     0.58414
             13  S  1  Z      0.52785     0.57432
             14  S  1 XX      0.01640     0.24121
             15  S  1 YY      0.04844     0.27929
             16  S  1 ZZ      0.01596     0.27692
             17  S  1 XY      0.01830     0.01816
             18  S  1 XZ      0.00047     0.02160
             19  S  1 YZ      0.00000     0.00044
             20  O  2  S      1.99799     1.98173
             21  O  2  S      0.86739     0.67804
             22  O  2  S      1.11662     0.63462
             23  O  2  X      0.85059     0.81739
             24  O  2  Y      0.83711     0.80894
             25  O  2  Z      0.95449     0.92522
             26  O  2  X      0.54353     0.60090
             27  O  2  Y      0.54535     0.57618
             28  O  2  Z      0.61228     0.64476
             29  O  2 XX      0.00067     0.21414
             30  O  2 YY      0.00196     0.21564
             31  O  2 ZZ      0.00089     0.21242
             32  O  2 XY      0.00098     0.00108
             33  O  2 XZ      0.00003     0.00124
             34  O  2 YZ      0.00000     0.00003
             35  O  3  S      1.99799     1.98173
             36  O  3  S      0.86739     0.67804
             37  O  3  S      1.11662     0.63462
             38  O  3  X      0.85059     0.81739
             39  O  3  Y      0.83711     0.80894
             40  O  3  Z      0.95449     0.92522
             41  O  3  X      0.54353     0.60090
             42  O  3  Y      0.54535     0.57618
             43  O  3  Z      0.61228     0.64476
             44  O  3 XX      0.00067     0.21414
             45  O  3 YY      0.00196     0.21564
             46  O  3 ZZ      0.00089     0.21242
             47  O  3 XY      0.00098     0.00108
             48  O  3 XZ      0.00003     0.00124
             49  O  3 YZ      0.00000     0.00003

          ----- MULLIKEN ATOMIC OVERLAP POPULATIONS -----
          (OFF-DIAGONAL ELEMENTS NEED TO BE MULTIPLIED BY 2)

             1           2           3

    1   15.0255034
    2    0.1573486   8.1716393
    3    0.1573486   0.0009119   8.1716393

          TOTAL MULLIKEN AND LOWDIN ATOMIC POPULATIONS
       ATOM         MULL.POP.    CHARGE          LOW.POP.     CHARGE
    1 S            15.340201    0.659799        15.375301    0.624699
    2 O             8.329900   -0.329900         8.312349   -0.312349
    3 O             8.329900   -0.329900         8.312349   -0.312349

          MULLIKEN SPHERICAL HARMONIC POPULATIONS
       ATOM           S       P       D      F      G      H      I    TOTAL
    1 S             5.99    9.25    0.10   0.00   0.00   0.00   0.00   15.34
    2 O             3.98    4.34    0.00   0.00   0.00   0.00   0.00    8.33
    3 O             3.98    4.34    0.00   0.00   0.00   0.00   0.00    8.33

          -------------------------------
          BOND ORDER AND VALENCE ANALYSIS     BOND ORDER THRESHOLD=0.050
          -------------------------------

                   BOND                       BOND                       BOND
  ATOM PAIR DIST  ORDER      ATOM PAIR DIST  ORDER      ATOM PAIR DIST  ORDER
    1   2  2.000  1.508        1   3  2.000  1.508        2   3  3.939  0.788

                       TOTAL       BONDED        FREE
      ATOM            VALENCE     VALENCE     VALENCE
    1 S                 3.017       3.017       0.000
    2 O                 2.296       2.296       0.000
    3 O                 2.296       2.296       0.000

          ---------------------
          ELECTROSTATIC MOMENTS
          ---------------------

 POINT   1           X           Y           Z (BOHR)    CHARGE
                 0.000000    0.000000    0.000000        0.00 (A.U.)
         DX          DY          DZ         /D/  (DEBYE)
     0.000000    0.000000   -0.855300    0.855300
 ...... END OF PROPERTY EVALUATION ......
 STEP CPU TIME =     0.00 TOTAL CPU TIME =        1.6 (    0.0 MIN)
 TOTAL WALL CLOCK TIME=        1.6 SECONDS, CPU UTILIZATION IS  99.37%
               580000  WORDS OF DYNAMIC MEMORY USED
 EXECUTION OF GAMESS TERMINATED NORMALLY Thu Feb 26 00:23:13 2015
 DDI: 263624 bytes (0.3 MB / 0 MWords) used by master data server.

 ----------------------------------------
 CPU timing information for all processes
 ========================================
 0: 1.557 + 0.27 = 1.585
 ----------------------------------------
 ddikick.x: exited gracefully.
----- accounting info -----
Files used on the master node dftfe.crc.nd.edu were:
-rw-r--r-- 1 pmehta1 campus   37475 Feb 26 00:23 /tmp/gamess.dat
-rw-r--r-- 1 pmehta1 campus     142 Feb 26 00:23 /tmp/gamess.F05
-rw-r--r-- 1 pmehta1 campus 1800240 Feb 26 00:23 /tmp/gamess.F08
-rw-r--r-- 1 pmehta1 campus 1220440 Feb 26 00:23 /tmp/gamess.F10
Thu Feb 26 00:23:16 EST 2015
0.239u 0.181s 0:05.01 8.1%	0+0k 0+112io 0pf+0w
