----- GAMESS execution script 'rungms' -----
This job is running on host dftfe.crc.nd.edu
under operating system Linux at Thu Feb 26 00:19:50 EST 2015
Available scratch disk space (Kbyte units) at beginning of the job is
Filesystem     1K-blocks     Used Available Use% Mounted on
/dev/sda2      147771864 22816028 117449404  17% /
GAMESS temporary binary files will be written to /tmp
GAMESS supplementary output files will be written to /tmp
Copying input file gamess.inp to your run's scratch directory...

 Distributed Data Interface kickoff program.
 Initiating 1 compute processes on 1 nodes to run the following command:
 /opt/crc/gamess/2012R1/gamess/gamess.00.x gamess 

          ******************************************************
          *         GAMESS VERSION =  1 MAY 2012 (R1)          *
          *             FROM IOWA STATE UNIVERSITY             *
          * M.W.SCHMIDT, K.K.BALDRIDGE, J.A.BOATZ, S.T.ELBERT, *
          *   M.S.GORDON, J.H.JENSEN, S.KOSEKI, N.MATSUNAGA,   *
          *          K.A.NGUYEN, S.J.SU, T.L.WINDUS,           *
          *       TOGETHER WITH M.DUPUIS, J.A.MONTGOMERY       *
          *         J.COMPUT.CHEM.  14, 1347-1363(1993)        *
          **************** 64 BIT LINUX VERSION ****************

  SINCE 1993, STUDENTS AND POSTDOCS WORKING AT IOWA STATE UNIVERSITY
  AND ALSO IN THEIR VARIOUS JOBS AFTER LEAVING ISU HAVE MADE IMPORTANT
  CONTRIBUTIONS TO THE CODE:
     IVANA ADAMOVIC, CHRISTINE AIKENS, YURI ALEXEEV, POOJA ARORA,
     ANDREY ASADCHEV, ROB BELL, PRADIPTA BANDYOPADHYAY, JONATHAN BENTZ,
     BRETT BODE, GALINA CHABAN, WEI CHEN, CHEOL HO CHOI, PAUL DAY,
     ALBERT DEFUSCO, TIM DUDLEY, DMITRI FEDOROV, GRAHAM FLETCHER,
     MARK FREITAG, KURT GLAESEMANN, DAN KEMP, GRANT MERRILL,
     NORIYUKI MINEZAWA, JONATHAN MULLIN, TAKESHI NAGATA,
     SEAN NEDD, HEATHER NETZLOFF, BOSILJKA NJEGIC, RYAN OLSON, MIKE PAK,
     JIM SHOEMAKER, LYUDMILA SLIPCHENKO, SAROM SOK, JIE SONG,
     TETSUYA TAKETSUGU, SIMON WEBB, SOOHAENG YOO, FEDERICO ZAHARIEV

  ADDITIONAL CODE HAS BEEN PROVIDED BY COLLABORATORS IN OTHER GROUPS:
     IOWA STATE UNIVERSITY:
          JOE IVANIC, LAIMUTIS BYTAUTAS, KLAUS RUEDENBERG
     UNIVERSITY OF TOKYO: KIMIHIKO HIRAO, TAKAHITO NAKAJIMA,
          TAKAO TSUNEDA, MUNEAKI KAMIYA, SUSUMU YANAGISAWA,
          KIYOSHI YAGI, MAHITO CHIBA, SEIKEN TOKURA, NAOAKI KAWAKAMI
     UNIVERSITY OF AARHUS: FRANK JENSEN
     UNIVERSITY OF IOWA: VISVALDAS KAIRYS, HUI LI
     NATIONAL INST. OF STANDARDS AND TECHNOLOGY: WALT STEVENS, DAVID GARMER
     UNIVERSITY OF PISA: BENEDETTA MENNUCCI, JACOPO TOMASI
     UNIVERSITY OF MEMPHIS: HENRY KURTZ, PRAKASHAN KORAMBATH
     UNIVERSITY OF ALBERTA: TOBY ZENG, MARIUSZ KLOBUKOWSKI
     UNIVERSITY OF NEW ENGLAND: MARK SPACKMAN
     MIE UNIVERSITY: HIROAKI UMEDA
     MICHIGAN STATE UNIVERSITY:
          KAROL KOWALSKI, MARTA WLOCH, JEFFREY GOUR, JESSE LUTZ, PIOTR PIECUCH
     UNIVERSITY OF SILESIA: MONIKA MUSIAL, STANISLAW KUCHARSKI
     FACULTES UNIVERSITAIRES NOTRE-DAME DE LA PAIX:
          OLIVIER QUINET, BENOIT CHAMPAGNE
     UNIVERSITY OF CALIFORNIA - SANTA BARBARA: BERNARD KIRTMAN
     INSTITUTE FOR MOLECULAR SCIENCE:
          KAZUYA ISHIMURA, MICHIO KATOUDA, AND SHIGERU NAGASE
     UNIVERSITY OF NOTRE DAME: DAN CHIPMAN
     KYUSHU UNIVERSITY:
          HARUYUKI NAKANO,
          FENG LONG GU, JACEK KORCHOWIEC, MARCIN MAKOWSKI, AND YURIKO AOKI,
          HIROTOSHI MORI AND EISAKU MIYOSHI
     PENNSYLVANIA STATE UNIVERSITY:
          TZVETELIN IORDANOV, CHET SWALINA, JONATHAN SKONE,
          SHARON HAMMES-SCHIFFER
     WASEDA UNIVERSITY:
          MASATO KOBAYASHI, TOMOKO AKAMA, TSUGUKI TOUMA,
          TAKESHI YOSHIKAWA, YASUHIRO IKABATA, HIROMI NAKAI
     UNIVERSITY OF NEBRASKA:
          PEIFENG SU, DEJUN SI, NANDUN THELLAMUREGE, YALI WANG, HUI LI
     UNIVERSITY OF ZURICH:
          ROBERTO PEVERATI, KIM BALDRIDGE
     N. COPERNICUS UNIVERSITY AND JACKSON STATE UNIVERSITY:
          MARIA BARYSZ

 EXECUTION OF GAMESS BEGUN Thu Feb 26 00:19:50 2015

            ECHO OF THE FIRST FEW INPUT CARDS -
 INPUT CARD> $BASIS GBASIS=PC1 $END                                                         
 INPUT CARD> $CONTRL COORD=ZMT ISPHER=1 RUNTYP=ENERGY DFTTYP=PBE $END                       
 INPUT CARD>                                                                                
 INPUT CARD> $DATA                                                                          
 INPUT CARD>Title                                                                           
 INPUT CARD>Cnv 2                                                                           
 INPUT CARD>                                                                                
 INPUT CARD>S                                                                               
 INPUT CARD>O 1 1.70                                                                        
 INPUT CARD>O 1 1.70 2 160.0                                                                
 INPUT CARD> $END                                                                           
    1000000 WORDS OF MEMORY AVAILABLE

     BASIS OPTIONS
     -------------
     GBASIS=PC1          IGAUSS=       0      POLAR=NONE    
     NDFUNC=       0     NFFUNC=       0     DIFFSP=       F
     NPFUNC=       0      DIFFS=       F     BASNAM=        


     RUN TITLE
     ---------
 Title                                                                           

 THE POINT GROUP OF THE MOLECULE IS CNV     
 THE ORDER OF THE PRINCIPAL AXIS IS     2

 YOUR FULLY SUBSTITUTED Z-MATRIX IS
 S   
 O      1   1.7000000
 O      1   1.7000000  2  160.0000

 THE MOMENTS OF INERTIA ARE (AMU-ANGSTROM**2)
 IXX=     1.393   IYY=    89.663   IZZ=    91.056

 ATOM      ATOMIC                      COORDINATES (BOHR)
           CHARGE         X                   Y                   Z
 S          16.0     0.0000000000        0.0000000000       -0.2790027572
 O           8.0    -3.1637285664        0.0000000000        0.2788479487
 O           8.0     3.1637285664        0.0000000000        0.2788479487

          INTERNUCLEAR DISTANCES (ANGS.)
          ------------------------------

                1 S          2 O          3 O     

   1 S       0.0000000    1.7000000 *  1.7000000 *
   2 O       1.7000000 *  0.0000000    3.3483464  
   3 O       1.7000000 *  3.3483464    0.0000000  

  * ... LESS THAN  3.000


     ATOMIC BASIS SET
     ----------------
 THE CONTRACTED PRIMITIVE FUNCTIONS HAVE BEEN UNNORMALIZED
 THE CONTRACTED BASIS FUNCTIONS ARE NOW NORMALIZED TO UNITY

  SHELL TYPE  PRIMITIVE        EXPONENT          CONTRACTION COEFFICIENT(S)

 S         

      1   S       1         55510.0000000    0.000587229760
      1   S       2          8326.7000000    0.004532413947
      1   S       3          1895.6000000    0.023265261648
      1   S       4           536.7700000    0.089696133027
      1   S       5           174.6700000    0.254098332277
      1   S       6            62.5780000    0.438665087637
      1   S       7            23.5730000    0.314547135094
      1   S       8             5.8908000    0.032727897102

      2   S       9          8326.7000000   -0.000019755715
      2   S      10          1895.6000000   -0.000043822381
      2   S      11           536.7700000   -0.001730264906
      2   S      12           174.6700000   -0.009381263460
      2   S      13            62.5780000   -0.064050766303
      2   S      14            23.5730000   -0.082478179196
      2   S      15             5.8908000    0.478342956889
      2   S      16             2.1852000    0.626896670208

      3   S      17          1895.6000000    0.000016227260
      3   S      18           536.7700000    0.000191135619
      3   S      19           174.6700000    0.001952069674
      3   S      20            62.5780000    0.010578701087
      3   S      21            23.5730000    0.022164934551
      3   S      22             5.8908000   -0.184968323118
      3   S      23             2.1852000   -0.480920750976
      3   S      24             0.4528200    1.243822243872

      4   S      25             0.1620200    1.000000000000

      5   P      26           395.4500000    0.004642761329
      5   P      27            92.8340000    0.036023396489
      5   P      28            29.2660000    0.149058869978
      5   P      29            10.5950000    0.360033266263
      5   P      30             4.0272000    0.455756476221
      5   P      31             1.5484000    0.206167664178

      6   P      32            92.8340000    0.000169901442
      6   P      33            29.2660000   -0.002541839934
      6   P      34            10.5950000   -0.007867614595
      6   P      35             4.0272000   -0.037231009184
      6   P      36             1.5484000    0.161417246830
      6   P      37             0.4613400    0.902230419976

      7   P      38             0.1313100    1.000000000000

      8   D      39             0.5500000    1.000000000000

 O         

     15   S      40          2306.7000000    0.005424388755
     15   S      41           347.1500000    0.040474749465
     15   S      42            78.8900000    0.180219634554
     15   S      43            21.8760000    0.462370311787
     15   S      44             6.6646000    0.454888396263

     16   S      45           347.1500000   -0.000655003786
     16   S      46            78.8900000   -0.005362052952
     16   S      47            21.8760000   -0.074902158894
     16   S      48             6.6646000   -0.181442579655
     16   S      49             1.0669000    1.102006874042

     17   S      50             0.3070000    1.000000000000

     18   P      51            17.0220000    0.068979967443
     18   P      52             3.6838000    0.351985516325
     18   P      53             0.9923400    0.724036547822

     19   P      54             0.2448700    1.000000000000

     20   D      55             1.0000000    1.000000000000

 TOTAL NUMBER OF BASIS SET SHELLS             =   20
 NUMBER OF CARTESIAN GAUSSIAN BASIS FUNCTIONS =   49
 NOTE: THIS RUN WILL RESTRICT THE MO VARIATION SPACE TO SPHERICAL HARMONICS.
 THE NUMBER OF ORBITALS KEPT IN THE VARIATIONAL SPACE WILL BE PRINTED LATER.
 NUMBER OF ELECTRONS                          =   32
 CHARGE OF MOLECULE                           =    0
 SPIN MULTIPLICITY                            =    1
 NUMBER OF OCCUPIED ORBITALS (ALPHA)          =   16
 NUMBER OF OCCUPIED ORBITALS (BETA )          =   16
 TOTAL NUMBER OF ATOMS                        =    3
 THE NUCLEAR REPULSION ENERGY IS       89.8025158626

     LEBEDEV GRID-BASED DFT OPTIONS
     ------------------------------
     DFTTYP=PBE     
     NRAD  =      96     NLEB  =     302
     NRAD0 =      24     NLEB0 =     110
     SWOFF =    5.00E-03 (PURE SCF -> DFT)
     SWITCH=    3.00E-04 (COARSE -> TIGHT GRID)
     THRESH=    0.00E+00 GTHRE=    1.00E+00

 GRIMME'S EMPIRICAL DISPERSION CORRECTION= F

     $CONTRL OPTIONS
     ---------------
 SCFTYP=RHF          RUNTYP=ENERGY       EXETYP=RUN     
 MPLEVL=       0     CITYP =NONE         CCTYP =NONE         VBTYP =NONE    
 DFTTYP=PBE          TDDFT =NONE    
 MULT  =       1     ICHARG=       0     NZVAR =       0     COORD =ZMT     
 PP    =NONE         RELWFN=NONE         LOCAL =NONE         NUMGRD=       F
 ISPHER=       1     NOSYM =       0     MAXIT =      30     UNITS =ANGS    
 PLTORB=       F     MOLPLT=       F     AIMPAC=       F     FRIEND=        
 NPRINT=       7     IREST =       0     GEOM  =INPUT   
 NORMF =       0     NORMP =       0     ITOL  =      20     ICUT  =       9
 INTTYP=BEST         GRDTYP=BEST         QMTTOL= 1.0E-06

     $SYSTEM OPTIONS
     ---------------
  REPLICATED MEMORY=     1000000 WORDS (ON EVERY NODE).
 DISTRIBUTED MEMDDI=           0 MILLION WORDS IN AGGREGATE,
 MEMDDI DISTRIBUTED OVER   1 PROCESSORS IS           0 WORDS/PROCESSOR.
 TOTAL MEMORY REQUESTED ON EACH PROCESSOR=     1000000 WORDS.
 TIMLIM=      525600.00 MINUTES, OR     365.0 DAYS.
 PARALL= F  BALTYP=  DLB     KDIAG=    0  COREFL= F
 MXSEQ2=     300 MXSEQ3=     150

          ----------------
          PROPERTIES INPUT
          ----------------

     MOMENTS            FIELD           POTENTIAL          DENSITY
 IEMOM =       1   IEFLD =       0   IEPOT =       0   IEDEN =       0
 WHERE =COMASS     WHERE =NUCLEI     WHERE =NUCLEI     WHERE =NUCLEI  
 OUTPUT=BOTH       OUTPUT=BOTH       OUTPUT=BOTH       OUTPUT=BOTH    
 IEMINT=       0   IEFINT=       0                     IEDINT=       0
                                                       MORB  =       0
          EXTRAPOLATION IN EFFECT
          DIIS IN EFFECT
 ORBITAL PRINTING OPTION: NPREO=     1    49     2     1

     -------------------------------
     INTEGRAL TRANSFORMATION OPTIONS
     -------------------------------
     NWORD  =            0
     CUTOFF = 1.0E-09     MPTRAN =       0
     DIRTRF =       F     AOINTS =DUP     

          ----------------------
          INTEGRAL INPUT OPTIONS
          ----------------------
 NOPK  =       1 NORDER=       0 SCHWRZ=       F

   --- ENCODED Z MATRIX ---
 COORD  TYPE   I   J   K   L   M   N
    1      1    3   1
    2      1    2   1
    3      2    2   1   3

 THE DETERMINANT OF THE G MATRIX IS 10**(    -4)

 THE DETERMINANT OF THE G MATRIX IS 10**(    -4)
 * * * WARNING * * *
 YOUR B MATRIX HAS A SMALL DETERMINANT.
 THIS SUGGESTS YOU MAY HAVE BADLY CHOSEN COORDINATES.

     ------------------------------------------
     THE POINT GROUP IS CNV, NAXIS= 2, ORDER= 4
     ------------------------------------------

 -- VARIATIONAL SPACE WILL BE RESTRICTED TO PURE SPHERICAL HARMONICS ONLY --
 AFTER EXCLUDING CONTAMINANT COMBINATIONS FROM THE CARTESIAN GAUSSIAN BASIS
 SET, THE NUMBER OF SPHERICAL HARMONICS KEPT IN THE VARIATION SPACE IS   46

     DIMENSIONS OF THE SYMMETRY SUBSPACES ARE
 A1  =   19     A2  =    5     B1  =   14     B2  =    8

 ..... DONE SETTING UP THE RUN .....
 STEP CPU TIME =     0.01 TOTAL CPU TIME =        0.0 (    0.0 MIN)
 TOTAL WALL CLOCK TIME=        0.0 SECONDS, CPU UTILIZATION IS  50.00%

          ********************
          1 ELECTRON INTEGRALS
          ********************
 ...... END OF ONE-ELECTRON INTEGRALS ......
 STEP CPU TIME =     0.01 TOTAL CPU TIME =        0.0 (    0.0 MIN)
 TOTAL WALL CLOCK TIME=        0.0 SECONDS, CPU UTILIZATION IS  66.67%

          -------------
          GUESS OPTIONS
          -------------
          GUESS =HUCKEL            NORB  =       0          NORDER=       0
          MIX   =       F          PRTMO =       F          PUNMO =       F
          TOLZ  = 1.0E-08          TOLE  = 1.0E-05
          SYMDEN=       F          PURIFY=       F

 INITIAL GUESS ORBITALS GENERATED BY HUCKEL   ROUTINE.
 HUCKEL GUESS REQUIRES     21583 WORDS.

 STATISTICS FOR GENERATION OF SYMMETRY ORBITAL -Q- MATRIX
 NUMBER OF CARTESIAN ATOMIC ORBITALS=         49
 NUMBER OF SPHERICAL CONTAMINANTS DROPPED=     3
 NUMBER OF LINEARLY DEPENDENT MOS DROPPED=     0
 TOTAL NUMBER OF MOS IN VARIATION SPACE=      46

 SYMMETRIES FOR INITIAL GUESS ORBITALS FOLLOW.   BOTH SET(S).
    16 ORBITALS ARE OCCUPIED (    7 CORE ORBITALS).
     8=?B1      9=?A1     10=?A1     11=B2      12=?A1     13=?B1     14=A2  
    15=?B1     16=?A1     17=B2      18=A1      19=B1      20=A1      21=A1  
    22=A1      23=A1      24=A1      25=?A1     26=A1  
 ...... END OF INITIAL ORBITAL SELECTION ......
 STEP CPU TIME =     0.00 TOTAL CPU TIME =        0.0 (    0.0 MIN)
 TOTAL WALL CLOCK TIME=        0.0 SECONDS, CPU UTILIZATION IS  66.67%

                    ----------------------
                    AO INTEGRAL TECHNOLOGY
                    ----------------------
     S,P,L SHELL ROTATED AXIS INTEGRALS, REPROGRAMMED BY
        KAZUYA ISHIMURA (IMS) AND JOSE SIERRA (SYNSTAR).
     S,P,D,L SHELL ROTATED AXIS INTEGRALS PROGRAMMED BY
        KAZUYA ISHIMURA (INSTITUTE FOR MOLECULAR SCIENCE).
     S,P,D,F,G SHELL TO TOTAL QUARTET ANGULAR MOMENTUM SUM 5,
        ERIC PROGRAM BY GRAHAM FLETCHER (ELORET AND NASA ADVANCED
        SUPERCOMPUTING DIVISION, AMES RESEARCH CENTER).
     S,P,D,F,G,L SHELL GENERAL RYS QUADRATURE PROGRAMMED BY
        MICHEL DUPUIS (PACIFIC NORTHWEST NATIONAL LABORATORY).

          --------------------
          2 ELECTRON INTEGRALS
          --------------------

 THE -PK- OPTION IS OFF, THE INTEGRALS ARE NOT IN SUPERMATRIX FORM.
 STORING   15000 INTEGRALS/RECORD ON DISK, USING 12 BYTES/INTEGRAL.
 TWO ELECTRON INTEGRAL EVALUATION REQUIRES   90606 WORDS OF MEMORY.
 II,JST,KST,LST =  1  1  1  1 NREC =         1 INTLOC =    1
 II,JST,KST,LST =  2  1  1  1 NREC =         1 INTLOC =    2
 II,JST,KST,LST =  3  1  1  1 NREC =         1 INTLOC =    7
 II,JST,KST,LST =  4  1  1  1 NREC =         1 INTLOC =   22
 II,JST,KST,LST =  5  1  1  1 NREC =         1 INTLOC =   56
 II,JST,KST,LST =  6  1  1  1 NREC =         1 INTLOC =  125
 II,JST,KST,LST =  7  1  1  1 NREC =         1 INTLOC =  329
 II,JST,KST,LST =  8  1  1  1 NREC =         1 INTLOC =  776
 II,JST,KST,LST =  9  1  1  1 NREC =         1 INTLOC = 2864
 II,JST,KST,LST = 10  1  1  1 NREC =         1 INTLOC = 2864
 II,JST,KST,LST = 11  1  1  1 NREC =         1 INTLOC = 2864
 II,JST,KST,LST = 12  1  1  1 NREC =         1 INTLOC = 2864
 II,JST,KST,LST = 13  1  1  1 NREC =         1 INTLOC = 2864
 II,JST,KST,LST = 14  1  1  1 NREC =         1 INTLOC = 2864
 II,JST,KST,LST = 15  1  1  1 NREC =         1 INTLOC = 2864
 II,JST,KST,LST = 16  1  1  1 NREC =         1 INTLOC = 4931
 II,JST,KST,LST = 17  1  1  1 NREC =         1 INTLOC = 7960
 II,JST,KST,LST = 18  1  1  1 NREC =         1 INTLOC =12310
 II,JST,KST,LST = 19  1  1  1 NREC =         2 INTLOC =13029
 II,JST,KST,LST = 20  1  1  1 NREC =         4 INTLOC =13042
 TOTAL NUMBER OF NONZERO TWO-ELECTRON INTEGRALS =              153842
         11 INTEGRAL RECORDS WERE STORED ON DISK FILE  8.
  ...... END OF TWO-ELECTRON INTEGRALS .....
 STEP CPU TIME =     0.15 TOTAL CPU TIME =        0.2 (    0.0 MIN)
 TOTAL WALL CLOCK TIME=        0.2 SECONDS, CPU UTILIZATION IS  89.47%

          --------------------------
               R-PBE SCF CALCULATION
          --------------------------

     NUCLEAR ENERGY =        89.8025158626
     MAXIT =   30     NPUNCH=    2
     EXTRAP=T  DAMP=F  SHIFT=F  RSTRCT=F  DIIS=T  DEM=F  SOSCF=F
         DENSITY MATRIX CONVERGENCE THRESHOLD=  1.00E-05
     COARSE -> FINE DFT GRID SWITCH THRESHOLD=  3.00E-04 (SWITCH IN $DFT)
                   HF -> DFT SWITCH THRESHOLD=  5.00E-03 (SWOFF IN $DFT)
     MEMORY REQUIRED FOR RHF ITERS=    183108 WORDS.

 DFT CODE IS SWITCHING FROM THE FINE GRID NRAD= 96,  NLEB=  302
                      TO THE COARSE GRID NRAD0= 24, NLEB0=  110

     EXCHANGE FUNCTIONAL   =PBE       
     CORRELATION FUNCTIONAL=PBE       
     DFT THRESHOLD         =.460E-07
     GRID CHANGE THRESHOLD =.300E-03
 FOR AN EULER-MACLAURIN QUADRATURE USING  96 RADIAL POINTS:
 SMALLEST GAUSSIAN PRIMITIVE EXPONENT=        0.1313100000 OF TYPE -P-
 ON ATOM NUMBER   1 HAS RADIAL NORMALIZATION=  1.000000
  LARGEST GAUSSIAN PRIMITIVE EXPONENT=    55510.0000000000 OF TYPE -S-
 ON ATOM NUMBER   1 HAS RADIAL NORMALIZATION=  0.999999
 DFT IS SWITCHED OFF, PERFORMING PURE SCF UNTIL SWOFF THRESHOLD IS REACHED.

 ITER EX DEM     TOTAL ENERGY        E CHANGE  DENSITY CHANGE    DIIS ERROR
   1  0  0     -545.8587953061  -545.8587953061   0.480943661   1.279393301
          * * *   INITIATING DIIS PROCEDURE   * * *
   2  1  0     -546.3097999766    -0.4510046705   0.720202126   0.470848346
   3  2  0     -546.2245637605     0.0852362161   0.287779074   0.505925264
   4  3  0     -546.9045483517    -0.6799845912   0.032966040   0.018291494
   5  4  0     -546.9086882840    -0.0041399323   0.018568637   0.011403277
   6  5  0     -546.9101708406    -0.0014825565   0.014857887   0.008991896
   7  6  0     -546.9111258298    -0.0009549892   0.014299739   0.005231066
   8  7  0     -546.9115770325    -0.0004512027   0.007820709   0.001948554
   9  8  0     -546.9116925531    -0.0001155207   0.006064921   0.001107623
  10  9  0     -546.9117333246    -0.0000407715   0.005209096   0.000661494
  11 10  0     -546.9117436110    -0.0000102864   0.000566285   0.000046801
 CONVERGED TO SWOFF, SO DFT CALCULATION IS NOW SWITCHED ON.
          * * *   INITIATING DIIS PROCEDURE   * * *
  12 11  0     -548.0898517420    -1.1781081310   0.377859750   0.110201996
  13 12  0     -548.0665002974     0.0233514446   0.313680436   0.159941967
  14 13  0     -548.0648453095     0.0016549879   0.154287172   0.203310321
  15 14  0     -548.1498229831    -0.0849776736   0.043211369   0.026610505
  16 15  0     -548.1530076399    -0.0031846568   0.011933085   0.006681603
  17 16  0     -548.1531449210    -0.0001372810   0.003558888   0.000922567
  18 17  0     -548.1531501851    -0.0000052641   0.000382445   0.000131927
  19 18  0     -548.1531502878    -0.0000001027   0.000047803   0.000024990
 DFT CODE IS SWITCHING BACK TO THE FINE GRID
          * * *   INITIATING DIIS PROCEDURE   * * *
  20 19  0     -548.1644675949    -0.0113173071   0.028511234   0.012237403
  21 20  0     -548.1644944739    -0.0000268789   0.024623336   0.012034405
  22 21  0     -548.1640801100     0.0004143639   0.015106661   0.019188197
  23 22  0     -548.1648708560    -0.0007907460   0.003833029   0.002241318
  24 23  0     -548.1648935968    -0.0000227408   0.000132998   0.000154211
  25 24  0     -548.1648936639    -0.0000000671   0.000020379   0.000037255
  26 25  0     -548.1648936671    -0.0000000032   0.000004981   0.000002765
  27 26  0     -548.1648936672     0.0000000000   0.000001463   0.000001250

          -----------------
          DENSITY CONVERGED
          -----------------
     TIME TO FORM FOCK OPERATORS=       4.2 SECONDS (       0.2 SEC/ITER)
     TIME TO SOLVE SCF EQUATIONS=       0.0 SECONDS (       0.0 SEC/ITER)

 FINAL R-PBE ENERGY IS     -548.1648936672 AFTER  27 ITERATIONS
 DFT EXCHANGE + CORRELATION ENERGY =       -42.2500364634
 TOTAL ELECTRON NUMBER             =        32.0000011929

          ------------
          EIGENVECTORS
          ------------

                      1          2          3          4          5
                  -88.2243   -18.8294   -18.8293    -7.8402    -5.8620
                     A1         B1         A1         A1         B1  
    1  S  1  S    1.002979   0.000000  -0.000034  -0.274135   0.000000
    2  S  1  S   -0.010298   0.000000  -0.000680   1.039367   0.000000
    3  S  1  S    0.001758   0.000000  -0.001107   0.040045   0.000000
    4  S  1  S   -0.000828   0.000000   0.006164  -0.011160   0.000000
    5  S  1  X    0.000000   0.000163   0.000000   0.000000   0.996933
    6  S  1  Y    0.000000   0.000000   0.000000   0.000000   0.000000
    7  S  1  Z    0.000052   0.000000  -0.000025   0.008804   0.000000
    8  S  1  X    0.000000  -0.001270   0.000000   0.000000   0.008674
    9  S  1  Y    0.000000   0.000000   0.000000   0.000000   0.000000
   10  S  1  Z    0.000000   0.000000   0.000225   0.000663   0.000000
   11  S  1  X    0.000000  -0.007784   0.000000   0.000000  -0.000414
   12  S  1  Y    0.000000   0.000000   0.000000   0.000000   0.000000
   13  S  1  Z   -0.000002   0.000000   0.000928  -0.000241   0.000000
   14  S  1 XX    0.000058   0.000000   0.001387   0.000942   0.000000
   15  S  1 YY   -0.000030   0.000000  -0.000742  -0.000455   0.000000
   16  S  1 ZZ   -0.000028   0.000000  -0.000644  -0.000487   0.000000
   17  S  1 XY    0.000000   0.000000   0.000000   0.000000   0.000000
   18  S  1 XZ    0.000000  -0.000692   0.000000   0.000000   0.000552
   19  S  1 YZ    0.000000   0.000000   0.000000   0.000000   0.000000
   20  O  2  S    0.000005   0.703308   0.703224   0.000055   0.000119
   21  O  2  S    0.000032   0.026064   0.024912   0.000212   0.000168
   22  O  2  S    0.000000  -0.013477  -0.009946  -0.000027  -0.000428
   23  O  2  X    0.000002   0.000815   0.000767  -0.000183  -0.000115
   24  O  2  Y    0.000000   0.000000   0.000000   0.000000   0.000000
   25  O  2  Z   -0.000002  -0.000202  -0.000024   0.000017   0.000004
   26  O  2  X   -0.000081  -0.003245  -0.002571  -0.000923  -0.000278
   27  O  2  Y    0.000000   0.000000   0.000000   0.000000   0.000000
   28  O  2  Z    0.000020   0.000939   0.000168   0.000243   0.000140
   29  O  2 XX   -0.000092  -0.000313  -0.000458  -0.000874  -0.000364
   30  O  2 YY    0.000049   0.000174   0.000247   0.000461   0.000199
   31  O  2 ZZ    0.000043   0.000139   0.000211   0.000413   0.000165
   32  O  2 XY    0.000000   0.000000   0.000000   0.000000   0.000000
   33  O  2 XZ    0.000031   0.000133   0.000141   0.000292   0.000162
   34  O  2 YZ    0.000000   0.000000   0.000000   0.000000   0.000000
   35  O  3  S    0.000005  -0.703308   0.703224   0.000055  -0.000119
   36  O  3  S    0.000032  -0.026064   0.024912   0.000212  -0.000168
   37  O  3  S    0.000000   0.013477  -0.009946  -0.000027   0.000428
   38  O  3  X   -0.000002   0.000815  -0.000767   0.000183  -0.000115
   39  O  3  Y    0.000000   0.000000   0.000000   0.000000   0.000000
   40  O  3  Z   -0.000002   0.000202  -0.000024   0.000017  -0.000004
   41  O  3  X    0.000081  -0.003245   0.002571   0.000923  -0.000278
   42  O  3  Y    0.000000   0.000000   0.000000   0.000000   0.000000
   43  O  3  Z    0.000020  -0.000939   0.000168   0.000243  -0.000140
   44  O  3 XX   -0.000092   0.000313  -0.000458  -0.000874   0.000364
   45  O  3 YY    0.000049  -0.000174   0.000247   0.000461  -0.000199
   46  O  3 ZZ    0.000043  -0.000139   0.000211   0.000413  -0.000165
   47  O  3 XY    0.000000   0.000000   0.000000   0.000000   0.000000
   48  O  3 XZ   -0.000031   0.000133  -0.000141  -0.000292   0.000162
   49  O  3 YZ    0.000000   0.000000   0.000000   0.000000   0.000000

                      6          7          8          9         10
                   -5.8594    -5.8576    -0.9512    -0.9117    -0.6372
                     B2         A1         A1         B1         A1  
    1  S  1  S    0.000000   0.002459   0.044061   0.000000   0.072078
    2  S  1  S    0.000000  -0.009287  -0.130307   0.000000  -0.205591
    3  S  1  S    0.000000   0.000156   0.256987   0.000000   0.451118
    4  S  1  S    0.000000  -0.000526   0.184062   0.000000   0.429753
    5  S  1  X    0.000000   0.000000   0.000000   0.093700   0.000000
    6  S  1  Y    0.997005   0.000000   0.000000   0.000000   0.000000
    7  S  1  Z    0.000000   0.996996  -0.019120   0.000000  -0.004456
    8  S  1  X    0.000000   0.000000   0.000000  -0.184672   0.000000
    9  S  1  Y    0.008587   0.000000   0.000000   0.000000   0.000000
   10  S  1  Z    0.000000   0.008480   0.040658   0.000000   0.015979
   11  S  1  X    0.000000   0.000000   0.000000  -0.019088   0.000000
   12  S  1  Y   -0.000088   0.000000   0.000000   0.000000   0.000000
   13  S  1  Z    0.000000  -0.000103   0.007240   0.000000  -0.002393
   14  S  1 XX    0.000000  -0.000494   0.051020   0.000000  -0.016540
   15  S  1 YY    0.000000  -0.000215  -0.026812   0.000000   0.009677
   16  S  1 ZZ    0.000000   0.000709  -0.024208   0.000000   0.006863
   17  S  1 XY    0.000000   0.000000   0.000000   0.000000   0.000000
   18  S  1 XZ    0.000000   0.000000   0.000000  -0.020300   0.000000
   19  S  1 YZ    0.000535   0.000000   0.000000   0.000000   0.000000
   20  O  2  S    0.000000  -0.000032  -0.130965  -0.150749   0.098827
   21  O  2  S    0.000000  -0.000108   0.264444   0.301339  -0.205020
   22  O  2  S    0.000000   0.000316   0.316203   0.389093  -0.319400
   23  O  2  X    0.000000   0.000045   0.081970   0.074037   0.124043
   24  O  2  Y    0.000004   0.000000   0.000000   0.000000   0.000000
   25  O  2  Z    0.000000  -0.000003  -0.011509  -0.010853  -0.017740
   26  O  2  X    0.000000   0.000214   0.036327   0.042820   0.055815
   27  O  2  Y   -0.000032   0.000000   0.000000   0.000000   0.000000
   28  O  2  Z    0.000000  -0.000079  -0.004232  -0.007390  -0.005386
   29  O  2 XX    0.000000   0.000141   0.008935   0.008772   0.008867
   30  O  2 YY    0.000000  -0.000067  -0.003743  -0.003665  -0.005209
   31  O  2 ZZ    0.000000  -0.000073  -0.005192  -0.005108  -0.003658
   32  O  2 XY    0.000015   0.000000   0.000000   0.000000   0.000000
   33  O  2 XZ    0.000000  -0.000037  -0.000273  -0.000932  -0.003552
   34  O  2 YZ   -0.000009   0.000000   0.000000   0.000000   0.000000
   35  O  3  S    0.000000  -0.000032  -0.130965   0.150749   0.098827
   36  O  3  S    0.000000  -0.000108   0.264444  -0.301339  -0.205020
   37  O  3  S    0.000000   0.000316   0.316203  -0.389093  -0.319400
   38  O  3  X    0.000000  -0.000045  -0.081970   0.074037  -0.124043
   39  O  3  Y    0.000004   0.000000   0.000000   0.000000   0.000000
   40  O  3  Z    0.000000  -0.000003  -0.011509   0.010853  -0.017740
   41  O  3  X    0.000000  -0.000214  -0.036327   0.042820  -0.055815
   42  O  3  Y   -0.000032   0.000000   0.000000   0.000000   0.000000
   43  O  3  Z    0.000000  -0.000079  -0.004232   0.007390  -0.005386
   44  O  3 XX    0.000000   0.000141   0.008935  -0.008772   0.008867
   45  O  3 YY    0.000000  -0.000067  -0.003743   0.003665  -0.005209
   46  O  3 ZZ    0.000000  -0.000073  -0.005192   0.005108  -0.003658
   47  O  3 XY   -0.000015   0.000000   0.000000   0.000000   0.000000
   48  O  3 XZ    0.000000   0.000037   0.000273  -0.000932   0.003552
   49  O  3 YZ   -0.000009   0.000000   0.000000   0.000000   0.000000

                     11         12         13         14         15
                   -0.4391    -0.3954    -0.3930    -0.3214    -0.3167
                     B1         B2         A1         A2         B1  
    1  S  1  S    0.000000   0.000000  -0.007259   0.000000   0.000000
    2  S  1  S    0.000000   0.000000   0.024410   0.000000   0.000000
    3  S  1  S    0.000000   0.000000  -0.041078   0.000000   0.000000
    4  S  1  S    0.000000   0.000000  -0.083799   0.000000   0.000000
    5  S  1  X   -0.177161   0.000000   0.000000   0.000000  -0.016264
    6  S  1  Y    0.000000  -0.204277   0.000000   0.000000   0.000000
    7  S  1  Z    0.000000   0.000000  -0.203691   0.000000   0.000000
    8  S  1  X    0.417735   0.000000   0.000000   0.000000   0.037262
    9  S  1  Y    0.000000   0.479394   0.000000   0.000000   0.000000
   10  S  1  Z    0.000000   0.000000   0.477327   0.000000   0.000000
   11  S  1  X    0.058647   0.000000   0.000000   0.000000   0.049309
   12  S  1  Y    0.000000   0.305568   0.000000   0.000000   0.000000
   13  S  1  Z    0.000000   0.000000   0.301090   0.000000   0.000000
   14  S  1 XX    0.000000   0.000000  -0.009284   0.000000   0.000000
   15  S  1 YY    0.000000   0.000000  -0.013421   0.000000   0.000000
   16  S  1 ZZ    0.000000   0.000000   0.022704   0.000000   0.000000
   17  S  1 XY    0.000000   0.000000   0.000000  -0.094911   0.000000
   18  S  1 XZ    0.023075   0.000000   0.000000   0.000000  -0.092178
   19  S  1 YZ    0.000000   0.020691   0.000000   0.000000   0.000000
   20  O  2  S   -0.057153   0.000000   0.005733   0.000000  -0.002351
   21  O  2  S    0.126626   0.000000  -0.010819   0.000000   0.002705
   22  O  2  S    0.183092   0.000000  -0.026540   0.000000   0.024439
   23  O  2  X   -0.360574   0.000000   0.115228   0.000000   0.098868
   24  O  2  Y    0.000000   0.299451   0.000000   0.468000   0.000000
   25  O  2  Z    0.058401   0.000000   0.275971   0.000000   0.456191
   26  O  2  X   -0.228027   0.000000   0.073612   0.000000   0.074700
   27  O  2  Y    0.000000   0.185585   0.000000   0.334406   0.000000
   28  O  2  Z    0.039947   0.000000   0.171773   0.000000   0.324971
   29  O  2 XX   -0.014832   0.000000   0.007279   0.000000   0.003466
   30  O  2 YY    0.008228   0.000000  -0.001735   0.000000   0.000390
   31  O  2 ZZ    0.006604   0.000000  -0.005545   0.000000  -0.003856
   32  O  2 XY    0.000000   0.016057   0.000000   0.014888   0.000000
   33  O  2 XZ    0.005991   0.000000   0.014198   0.000000   0.014529
   34  O  2 YZ    0.000000  -0.002405   0.000000  -0.002453   0.000000
   35  O  3  S    0.057153   0.000000   0.005733   0.000000   0.002351
   36  O  3  S   -0.126626   0.000000  -0.010819   0.000000  -0.002705
   37  O  3  S   -0.183092   0.000000  -0.026540   0.000000  -0.024439
   38  O  3  X   -0.360574   0.000000  -0.115228   0.000000   0.098868
   39  O  3  Y    0.000000   0.299451   0.000000  -0.468000   0.000000
   40  O  3  Z   -0.058401   0.000000   0.275971   0.000000  -0.456191
   41  O  3  X   -0.228027   0.000000  -0.073612   0.000000   0.074700
   42  O  3  Y    0.000000   0.185585   0.000000  -0.334406   0.000000
   43  O  3  Z   -0.039947   0.000000   0.171773   0.000000  -0.324971
   44  O  3 XX    0.014832   0.000000   0.007279   0.000000  -0.003466
   45  O  3 YY   -0.008228   0.000000  -0.001735   0.000000  -0.000390
   46  O  3 ZZ   -0.006604   0.000000  -0.005545   0.000000   0.003856
   47  O  3 XY    0.000000  -0.016057   0.000000   0.014888   0.000000
   48  O  3 XZ    0.005991   0.000000  -0.014198   0.000000   0.014529
   49  O  3 YZ    0.000000  -0.002405   0.000000   0.002453   0.000000

                     16         17         18         19         20
                   -0.2623    -0.2156    -0.1983     0.0565     0.3433
                     A1         B2         A1         B1         B1  
    1  S  1  S    0.027209   0.000000   0.013835   0.000000   0.000000
    2  S  1  S   -0.108844   0.000000  -0.049257   0.000000   0.000000
    3  S  1  S    0.136805   0.000000   0.079548   0.000000   0.000000
    4  S  1  S    0.511407   0.000000   0.255514   0.000000   0.000000
    5  S  1  X    0.000000   0.000000   0.000000  -0.232243   0.265903
    6  S  1  Y    0.000000  -0.206524   0.000000   0.000000   0.000000
    7  S  1  Z    0.061395   0.000000  -0.197111   0.000000   0.000000
    8  S  1  X    0.000000   0.000000   0.000000   0.617437  -1.022358
    9  S  1  Y    0.000000   0.516135   0.000000   0.000000   0.000000
   10  S  1  Z   -0.149758   0.000000   0.495683   0.000000   0.000000
   11  S  1  X    0.000000   0.000000   0.000000   1.081334   1.741083
   12  S  1  Y    0.000000   0.391422   0.000000   0.000000   0.000000
   13  S  1  Z   -0.067345   0.000000   0.402874   0.000000   0.000000
   14  S  1 XX   -0.152853   0.000000  -0.075378   0.000000   0.000000
   15  S  1 YY    0.076876   0.000000   0.042917   0.000000   0.000000
   16  S  1 ZZ    0.075976   0.000000   0.032461   0.000000   0.000000
   17  S  1 XY    0.000000   0.000000   0.000000   0.000000   0.000000
   18  S  1 XZ    0.000000   0.000000   0.000000  -0.093412  -0.083968
   19  S  1 YZ    0.000000  -0.004448   0.000000   0.000000   0.000000
   20  O  2  S    0.004979   0.000000   0.012399  -0.066525  -0.025672
   21  O  2  S   -0.013894   0.000000  -0.026883   0.125512  -0.004267
   22  O  2  S   -0.056166   0.000000  -0.085567   0.573437   0.647569
   23  O  2  X   -0.373683   0.000000  -0.265030   0.307496  -0.257544
   24  O  2  Y    0.000000  -0.396030   0.000000   0.000000   0.000000
   25  O  2  Z    0.269262   0.000000  -0.305125  -0.136427  -0.023972
   26  O  2  X   -0.271252   0.000000  -0.206495   0.401295   0.247984
   27  O  2  Y    0.000000  -0.300516   0.000000   0.000000   0.000000
   28  O  2  Z    0.195282   0.000000  -0.233398  -0.123629  -0.054617
   29  O  2 XX   -0.005203   0.000000  -0.001126   0.001072   0.050861
   30  O  2 YY    0.003201   0.000000   0.000917   0.000899  -0.025687
   31  O  2 ZZ    0.002002   0.000000   0.000209  -0.001971  -0.025174
   32  O  2 XY    0.000000   0.000078   0.000000   0.000000   0.000000
   33  O  2 XZ    0.005090   0.000000   0.001911   0.006689  -0.010127
   34  O  2 YZ    0.000000  -0.000160   0.000000   0.000000   0.000000
   35  O  3  S    0.004979   0.000000   0.012399   0.066525   0.025672
   36  O  3  S   -0.013894   0.000000  -0.026883  -0.125512   0.004267
   37  O  3  S   -0.056166   0.000000  -0.085567  -0.573437  -0.647569
   38  O  3  X    0.373683   0.000000   0.265030   0.307496  -0.257544
   39  O  3  Y    0.000000  -0.396030   0.000000   0.000000   0.000000
   40  O  3  Z    0.269262   0.000000  -0.305125   0.136427   0.023972
   41  O  3  X    0.271252   0.000000   0.206495   0.401295   0.247984
   42  O  3  Y    0.000000  -0.300516   0.000000   0.000000   0.000000
   43  O  3  Z    0.195282   0.000000  -0.233398   0.123629   0.054617
   44  O  3 XX   -0.005203   0.000000  -0.001126  -0.001072  -0.050861
   45  O  3 YY    0.003201   0.000000   0.000917  -0.000899   0.025687
   46  O  3 ZZ    0.002002   0.000000   0.000209   0.001971   0.025174
   47  O  3 XY    0.000000  -0.000078   0.000000   0.000000   0.000000
   48  O  3 XZ   -0.005090   0.000000  -0.001911   0.006689  -0.010127
   49  O  3 YZ    0.000000  -0.000160   0.000000   0.000000   0.000000

                     21         22         23         24         25
                    0.3680     0.3707     0.3891     0.4814     0.5045
                     A1         B2         A1         A2         B2  
    1  S  1  S   -0.049888   0.000000  -0.102552   0.000000   0.000000
    2  S  1  S   -0.193704   0.000000  -0.350313   0.000000   0.000000
    3  S  1  S   -0.786657   0.000000  -1.557418   0.000000   0.000000
    4  S  1  S    1.036041   0.000000   1.820246   0.000000   0.000000
    5  S  1  X    0.000000   0.000000   0.000000   0.000000   0.000000
    6  S  1  Y    0.000000   0.294388   0.000000   0.000000   0.031370
    7  S  1  Z    0.260729   0.000000  -0.133427   0.000000   0.000000
    8  S  1  X    0.000000   0.000000   0.000000   0.000000   0.000000
    9  S  1  Y    0.000000  -1.141149   0.000000   0.000000  -0.116716
   10  S  1  Z   -1.010285   0.000000   0.517735   0.000000   0.000000
   11  S  1  X    0.000000   0.000000   0.000000   0.000000   0.000000
   12  S  1  Y    0.000000   1.245156   0.000000   0.000000   0.086270
   13  S  1  Z    1.149397   0.000000  -0.519602   0.000000   0.000000
   14  S  1 XX   -0.050746   0.000000  -0.198225   0.000000   0.000000
   15  S  1 YY    0.105266   0.000000   0.062564   0.000000   0.000000
   16  S  1 ZZ   -0.054520   0.000000   0.135660   0.000000   0.000000
   17  S  1 XY    0.000000   0.000000   0.000000   0.830389   0.000000
   18  S  1 XZ    0.000000   0.000000   0.000000   0.000000   0.000000
   19  S  1 YZ    0.000000  -0.098227   0.000000   0.000000   0.985971
   20  O  2  S    0.009717   0.000000   0.008297   0.000000   0.000000
   21  O  2  S   -0.008988   0.000000  -0.018064   0.000000   0.000000
   22  O  2  S   -0.204252   0.000000  -0.175092   0.000000   0.000000
   23  O  2  X    0.072012   0.000000   0.102501   0.000000   0.000000
   24  O  2  Y    0.000000  -0.099641   0.000000   0.366747  -0.088283
   25  O  2  Z   -0.119218   0.000000  -0.007601   0.000000   0.000000
   26  O  2  X   -0.134999   0.000000  -0.115606   0.000000   0.000000
   27  O  2  Y    0.000000  -0.093755   0.000000  -0.192105   0.043850
   28  O  2  Z   -0.059292   0.000000   0.068780   0.000000   0.000000
   29  O  2 XX   -0.033868   0.000000  -0.038681   0.000000   0.000000
   30  O  2 YY    0.017636   0.000000   0.021417   0.000000   0.000000
   31  O  2 ZZ    0.016232   0.000000   0.017264   0.000000   0.000000
   32  O  2 XY    0.000000  -0.013739   0.000000  -0.060332   0.014632
   33  O  2 XZ   -0.000219   0.000000   0.023183   0.000000   0.000000
   34  O  2 YZ    0.000000   0.000655   0.000000   0.013284   0.018626
   35  O  3  S    0.009717   0.000000   0.008297   0.000000   0.000000
   36  O  3  S   -0.008988   0.000000  -0.018064   0.000000   0.000000
   37  O  3  S   -0.204252   0.000000  -0.175092   0.000000   0.000000
   38  O  3  X   -0.072012   0.000000  -0.102501   0.000000   0.000000
   39  O  3  Y    0.000000  -0.099641   0.000000  -0.366747  -0.088283
   40  O  3  Z   -0.119218   0.000000  -0.007601   0.000000   0.000000
   41  O  3  X    0.134999   0.000000   0.115606   0.000000   0.000000
   42  O  3  Y    0.000000  -0.093755   0.000000   0.192105   0.043850
   43  O  3  Z   -0.059292   0.000000   0.068780   0.000000   0.000000
   44  O  3 XX   -0.033868   0.000000  -0.038681   0.000000   0.000000
   45  O  3 YY    0.017636   0.000000   0.021417   0.000000   0.000000
   46  O  3 ZZ    0.016232   0.000000   0.017264   0.000000   0.000000
   47  O  3 XY    0.000000   0.013739   0.000000  -0.060332  -0.014632
   48  O  3 XZ    0.000219   0.000000  -0.023183   0.000000   0.000000
   49  O  3 YZ    0.000000   0.000655   0.000000  -0.013284   0.018626

                     26         27         28         29         30
                    0.5047     0.5215     0.7120     0.7795     0.7966
                     A1         B1         A1         B1         A2  
    1  S  1  S    0.001053   0.000000  -0.007161   0.000000   0.000000
    2  S  1  S    0.001211   0.000000  -0.115192   0.000000   0.000000
    3  S  1  S    0.012935   0.000000  -0.212347   0.000000   0.000000
    4  S  1  S   -0.005309   0.000000   1.157705   0.000000   0.000000
    5  S  1  X    0.000000   0.000942   0.000000  -0.073239   0.000000
    6  S  1  Y    0.000000   0.000000   0.000000   0.000000   0.000000
    7  S  1  Z    0.032584   0.000000  -0.022793   0.000000   0.000000
    8  S  1  X    0.000000  -0.028633   0.000000   0.428245   0.000000
    9  S  1  Y    0.000000   0.000000   0.000000   0.000000   0.000000
   10  S  1  Z   -0.121380   0.000000   0.101746   0.000000   0.000000
   11  S  1  X    0.000000   0.582898   0.000000  -0.089235   0.000000
   12  S  1  Y    0.000000   0.000000   0.000000   0.000000   0.000000
   13  S  1  Z    0.092476   0.000000   0.128378   0.000000   0.000000
   14  S  1 XX   -0.017517   0.000000   0.757500   0.000000   0.000000
   15  S  1 YY   -0.844356   0.000000  -0.411821   0.000000   0.000000
   16  S  1 ZZ    0.861873   0.000000  -0.345678   0.000000   0.000000
   17  S  1 XY    0.000000   0.000000   0.000000   0.000000   0.572840
   18  S  1 XZ    0.000000   0.830485   0.000000   0.371707   0.000000
   19  S  1 YZ    0.000000   0.000000   0.000000   0.000000   0.000000
   20  O  2  S    0.000315  -0.032315   0.059485  -0.018175   0.000000
   21  O  2  S   -0.000094   0.117099  -0.292133   0.101612   0.000000
   22  O  2  S   -0.006012   0.234144  -0.162978  -0.024519   0.000000
   23  O  2  X   -0.013650   0.063134   0.324326  -0.448322   0.000000
   24  O  2  Y    0.000000   0.000000   0.000000   0.000000  -0.539348
   25  O  2  Z   -0.089233   0.343944   0.035567  -0.336155   0.000000
   26  O  2  X    0.004515   0.205262  -0.924242   0.720988   0.000000
   27  O  2  Y    0.000000   0.000000   0.000000   0.000000   0.742882
   28  O  2  Z    0.043852  -0.256736   0.063884   0.424425   0.000000
   29  O  2 XX    0.003350  -0.014952   0.028718  -0.055357   0.000000
   30  O  2 YY   -0.017781  -0.003610  -0.018570   0.022539   0.000000
   31  O  2 ZZ    0.014431   0.018561  -0.010148   0.032818   0.000000
   32  O  2 XY    0.000000   0.000000   0.000000   0.000000  -0.064951
   33  O  2 XZ    0.014377  -0.056464  -0.021839  -0.019639   0.000000
   34  O  2 YZ    0.000000   0.000000   0.000000   0.000000   0.013819
   35  O  3  S    0.000315   0.032315   0.059485   0.018175   0.000000
   36  O  3  S   -0.000094  -0.117099  -0.292133  -0.101612   0.000000
   37  O  3  S   -0.006012  -0.234144  -0.162978   0.024519   0.000000
   38  O  3  X    0.013650   0.063134  -0.324326  -0.448322   0.000000
   39  O  3  Y    0.000000   0.000000   0.000000   0.000000   0.539348
   40  O  3  Z   -0.089233  -0.343944   0.035567   0.336155   0.000000
   41  O  3  X   -0.004515   0.205262   0.924242   0.720988   0.000000
   42  O  3  Y    0.000000   0.000000   0.000000   0.000000  -0.742882
   43  O  3  Z    0.043852   0.256736   0.063884  -0.424425   0.000000
   44  O  3 XX    0.003350   0.014952   0.028718   0.055357   0.000000
   45  O  3 YY   -0.017781   0.003610  -0.018570  -0.022539   0.000000
   46  O  3 ZZ    0.014431  -0.018561  -0.010148  -0.032818   0.000000
   47  O  3 XY    0.000000   0.000000   0.000000   0.000000  -0.064951
   48  O  3 XZ   -0.014377  -0.056464   0.021839  -0.019639   0.000000
   49  O  3 YZ    0.000000   0.000000   0.000000   0.000000  -0.013819

                     31         32         33         34         35
                    0.8198     0.8203     0.8205     0.9154     1.4671
                     A1         B2         B1         A1         A1  
    1  S  1  S    0.011123   0.000000   0.000000  -0.039390  -0.018731
    2  S  1  S    0.045827   0.000000   0.000000  -0.192215  -0.211238
    3  S  1  S    0.184753   0.000000   0.000000  -0.688560  -0.457264
    4  S  1  S   -0.080089   0.000000   0.000000   0.614344   1.514226
    5  S  1  X    0.000000   0.000000   0.064199   0.000000   0.000000
    6  S  1  Y    0.000000  -0.025450   0.000000   0.000000   0.000000
    7  S  1  Z   -0.027439   0.000000   0.000000  -0.005514  -0.006512
    8  S  1  X    0.000000   0.000000  -0.396485   0.000000   0.000000
    9  S  1  Y    0.000000   0.134690   0.000000   0.000000   0.000000
   10  S  1  Z    0.150923   0.000000   0.000000  -0.002641   0.034508
   11  S  1  X    0.000000   0.000000   0.088804   0.000000   0.000000
   12  S  1  Y    0.000000  -0.586820   0.000000   0.000000   0.000000
   13  S  1  Z   -0.572288   0.000000   0.000000  -0.063867   0.233337
   14  S  1 XX    0.015704   0.000000   0.000000   0.739308   0.434143
   15  S  1 YY    0.102959   0.000000   0.000000  -0.365864  -0.235453
   16  S  1 ZZ   -0.118663   0.000000   0.000000  -0.373443  -0.198689
   17  S  1 XY    0.000000   0.000000   0.000000   0.000000   0.000000
   18  S  1 XZ    0.000000   0.000000   0.442203   0.000000   0.000000
   19  S  1 YZ    0.000000  -0.129452   0.000000   0.000000   0.000000
   20  O  2  S   -0.002594   0.000000   0.010710   0.025606  -0.013297
   21  O  2  S    0.036264   0.000000  -0.112750  -0.095320   1.114964
   22  O  2  S    0.006039   0.000000   0.098842  -0.135071  -1.508295
   23  O  2  X    0.038243   0.000000   0.373870  -0.549835   0.079239
   24  O  2  Y    0.000000  -0.627459   0.000000   0.000000   0.000000
   25  O  2  Z   -0.625198   0.000000  -0.426101  -0.014342   0.029390
   26  O  2  X   -0.031456   0.000000  -0.499504   0.390841  -0.575320
   27  O  2  Y    0.000000   0.871588   0.000000   0.000000   0.000000
   28  O  2  Z    0.860189   0.000000   0.596223   0.125502   0.009804
   29  O  2 XX    0.008279   0.000000   0.017570  -0.001064   0.180675
   30  O  2 YY   -0.004098   0.000000  -0.019464  -0.005519  -0.097765
   31  O  2 ZZ   -0.004181   0.000000   0.001894   0.006583  -0.082910
   32  O  2 XY    0.000000  -0.023529   0.000000   0.000000   0.000000
   33  O  2 XZ   -0.025200   0.000000  -0.061432  -0.036624  -0.055330
   34  O  2 YZ    0.000000  -0.000158   0.000000   0.000000   0.000000
   35  O  3  S   -0.002594   0.000000  -0.010710   0.025606  -0.013297
   36  O  3  S    0.036264   0.000000   0.112750  -0.095320   1.114964
   37  O  3  S    0.006039   0.000000  -0.098842  -0.135071  -1.508295
   38  O  3  X   -0.038243   0.000000   0.373870   0.549835  -0.079239
   39  O  3  Y    0.000000  -0.627459   0.000000   0.000000   0.000000
   40  O  3  Z   -0.625198   0.000000   0.426101  -0.014342   0.029390
   41  O  3  X    0.031456   0.000000  -0.499504  -0.390841   0.575320
   42  O  3  Y    0.000000   0.871588   0.000000   0.000000   0.000000
   43  O  3  Z    0.860189   0.000000  -0.596223   0.125502   0.009804
   44  O  3 XX    0.008279   0.000000  -0.017570  -0.001064   0.180675
   45  O  3 YY   -0.004098   0.000000   0.019464  -0.005519  -0.097765
   46  O  3 ZZ   -0.004181   0.000000  -0.001894   0.006583  -0.082910
   47  O  3 XY    0.000000   0.023529   0.000000   0.000000   0.000000
   48  O  3 XZ    0.025200   0.000000  -0.061432   0.036624   0.055330
   49  O  3 YZ    0.000000  -0.000158   0.000000   0.000000   0.000000

                     36         37         38         39         40
                    1.7612     2.0699     2.0700     2.0765     2.0766
                     B1         A2         B1         B2         A1  
    1  S  1  S    0.000000   0.000000   0.000000   0.000000  -0.000212
    2  S  1  S    0.000000   0.000000   0.000000   0.000000  -0.001635
    3  S  1  S    0.000000   0.000000   0.000000   0.000000  -0.004342
    4  S  1  S    0.000000   0.000000   0.000000   0.000000   0.010557
    5  S  1  X   -0.026987   0.000000   0.000003   0.000000   0.000000
    6  S  1  Y    0.000000   0.000000   0.000000  -0.000870   0.000000
    7  S  1  Z    0.000000   0.000000   0.000000   0.000000   0.000079
    8  S  1  X    0.141145   0.000000  -0.000559   0.000000   0.000000
    9  S  1  Y    0.000000   0.000000   0.000000   0.002812   0.000000
   10  S  1  Z    0.000000   0.000000   0.000000   0.000000  -0.001049
   11  S  1  X    1.547749   0.000000   0.003651   0.000000   0.000000
   12  S  1  Y    0.000000   0.000000   0.000000  -0.001704   0.000000
   13  S  1  Z    0.000000   0.000000   0.000000   0.000000   0.007103
   14  S  1 XX    0.000000   0.000000   0.000000   0.000000   0.002566
   15  S  1 YY    0.000000   0.000000   0.000000   0.000000  -0.054617
   16  S  1 ZZ    0.000000   0.000000   0.000000   0.000000   0.052051
   17  S  1 XY    0.000000   0.019279   0.000000   0.000000   0.000000
   18  S  1 XZ    0.159512   0.000000  -0.019576   0.000000   0.000000
   19  S  1 YZ    0.000000   0.000000   0.000000  -0.059666   0.000000
   20  O  2  S    0.001911   0.000000   0.000254   0.000000   0.000295
   21  O  2  S   -1.245023   0.000000  -0.002056   0.000000   0.003803
   22  O  2  S    2.012416   0.000000   0.001817   0.000000  -0.008119
   23  O  2  X   -0.089864   0.000000  -0.000473   0.000000   0.000257
   24  O  2  Y    0.000000  -0.002936   0.000000  -0.001090   0.000000
   25  O  2  Z    0.058946   0.000000   0.003241   0.000000   0.002538
   26  O  2  X    0.591645   0.000000  -0.000797   0.000000  -0.004373
   27  O  2  Y    0.000000   0.005333   0.000000   0.003471   0.000000
   28  O  2  Z   -0.201209   0.000000  -0.005496   0.000000  -0.005554
   29  O  2 XX   -0.212335   0.000000  -0.039377   0.000000  -0.017488
   30  O  2 YY    0.107960   0.000000   0.610741   0.000000   0.610884
   31  O  2 ZZ    0.104375   0.000000  -0.571364   0.000000  -0.593396
   32  O  2 XY    0.000000   0.183705   0.000000   0.107880   0.000000
   33  O  2 XZ    0.054910   0.000000  -0.180874   0.000000  -0.127565
   34  O  2 YZ    0.000000   0.682867   0.000000   0.698835   0.000000
   35  O  3  S   -0.001911   0.000000  -0.000254   0.000000   0.000295
   36  O  3  S    1.245023   0.000000   0.002056   0.000000   0.003803
   37  O  3  S   -2.012416   0.000000  -0.001817   0.000000  -0.008119
   38  O  3  X   -0.089864   0.000000  -0.000473   0.000000  -0.000257
   39  O  3  Y    0.000000   0.002936   0.000000  -0.001090   0.000000
   40  O  3  Z   -0.058946   0.000000  -0.003241   0.000000   0.002538
   41  O  3  X    0.591645   0.000000  -0.000797   0.000000   0.004373
   42  O  3  Y    0.000000  -0.005333   0.000000   0.003471   0.000000
   43  O  3  Z    0.201209   0.000000   0.005496   0.000000  -0.005554
   44  O  3 XX    0.212335   0.000000   0.039377   0.000000  -0.017488
   45  O  3 YY   -0.107960   0.000000  -0.610741   0.000000   0.610884
   46  O  3 ZZ   -0.104375   0.000000   0.571364   0.000000  -0.593396
   47  O  3 XY    0.000000   0.183705   0.000000  -0.107880   0.000000
   48  O  3 XZ    0.054910   0.000000  -0.180874   0.000000   0.127565
   49  O  3 YZ    0.000000  -0.682867   0.000000   0.698835   0.000000

                     41         42         43         44         45
                    2.0830     2.0961     2.1831     2.2006     2.4432
                     B2         A1         B1         A2         B1  
    1  S  1  S    0.000000  -0.003142   0.000000   0.000000   0.000000
    2  S  1  S    0.000000   0.007754   0.000000   0.000000   0.000000
    3  S  1  S    0.000000  -0.026646   0.000000   0.000000   0.000000
    4  S  1  S    0.000000  -0.083596   0.000000   0.000000   0.000000
    5  S  1  X    0.000000   0.000000   0.036122   0.000000  -0.168534
    6  S  1  Y    0.026664   0.000000   0.000000   0.000000   0.000000
    7  S  1  Z    0.000000   0.029542   0.000000   0.000000   0.000000
    8  S  1  X    0.000000   0.000000  -0.146897   0.000000   0.705599
    9  S  1  Y   -0.059038   0.000000   0.000000   0.000000   0.000000
   10  S  1  Z    0.000000  -0.072613   0.000000   0.000000   0.000000
   11  S  1  X    0.000000   0.000000  -0.044434   0.000000   0.425435
   12  S  1  Y   -0.133604   0.000000   0.000000   0.000000   0.000000
   13  S  1  Z    0.000000  -0.142642   0.000000   0.000000   0.000000
   14  S  1 XX    0.000000   0.031470   0.000000   0.000000   0.000000
   15  S  1 YY    0.000000   0.037348   0.000000   0.000000   0.000000
   16  S  1 ZZ    0.000000  -0.068818   0.000000   0.000000   0.000000
   17  S  1 XY    0.000000   0.000000   0.000000   0.345906   0.000000
   18  S  1 XZ    0.000000   0.000000   0.292083   0.000000   0.268154
   19  S  1 YZ   -0.061981   0.000000   0.000000   0.000000   0.000000
   20  O  2  S    0.000000   0.001090  -0.000381   0.000000  -0.010530
   21  O  2  S    0.000000  -0.074125   0.086465   0.000000  -0.517389
   22  O  2  S    0.000000   0.101292  -0.117793   0.000000   0.863998
   23  O  2  X    0.000000  -0.036722   0.031791   0.000000  -0.098770
   24  O  2  Y   -0.044943   0.000000   0.000000  -0.040385   0.000000
   25  O  2  Z    0.000000  -0.041454  -0.044467   0.000000   0.015590
   26  O  2  X    0.000000   0.079223  -0.063761   0.000000   0.491748
   27  O  2  Y    0.083019   0.000000   0.000000   0.096925   0.000000
   28  O  2  Z    0.000000   0.077864   0.099344   0.000000  -0.071122
   29  O  2 XX    0.000000   0.294983   0.076139   0.000000   0.714772
   30  O  2 YY    0.000000  -0.040301   0.122025   0.000000  -0.340040
   31  O  2 ZZ    0.000000  -0.254682  -0.198164   0.000000  -0.374732
   32  O  2 XY    0.704234   0.000000   0.000000   0.692032   0.000000
   33  O  2 XZ    0.000000   0.636261   0.684756   0.000000  -0.075346
   34  O  2 YZ   -0.108619   0.000000   0.000000  -0.184907   0.000000
   35  O  3  S    0.000000   0.001090   0.000381   0.000000   0.010530
   36  O  3  S    0.000000  -0.074125  -0.086465   0.000000   0.517389
   37  O  3  S    0.000000   0.101292   0.117793   0.000000  -0.863998
   38  O  3  X    0.000000   0.036722   0.031791   0.000000  -0.098770
   39  O  3  Y   -0.044943   0.000000   0.000000   0.040385   0.000000
   40  O  3  Z    0.000000  -0.041454   0.044467   0.000000  -0.015590
   41  O  3  X    0.000000  -0.079223  -0.063761   0.000000   0.491748
   42  O  3  Y    0.083019   0.000000   0.000000  -0.096925   0.000000
   43  O  3  Z    0.000000   0.077864  -0.099344   0.000000   0.071122
   44  O  3 XX    0.000000   0.294983  -0.076139   0.000000  -0.714772
   45  O  3 YY    0.000000  -0.040301  -0.122025   0.000000   0.340040
   46  O  3 ZZ    0.000000  -0.254682   0.198164   0.000000   0.374732
   47  O  3 XY   -0.704234   0.000000   0.000000   0.692032   0.000000
   48  O  3 XZ    0.000000  -0.636261   0.684756   0.000000  -0.075346
   49  O  3 YZ   -0.108619   0.000000   0.000000   0.184907   0.000000

                     46
                    2.6564
                     A1  
    1  S  1  S    0.016810
    2  S  1  S   -0.142827
    3  S  1  S    0.017987
    4  S  1  S    1.083034
    5  S  1  X    0.000000
    6  S  1  Y    0.000000
    7  S  1  Z   -0.031150
    8  S  1  X    0.000000
    9  S  1  Y    0.000000
   10  S  1  Z    0.135885
   11  S  1  X    0.000000
   12  S  1  Y    0.000000
   13  S  1  Z    0.074742
   14  S  1 XX    0.800996
   15  S  1 YY   -0.412811
   16  S  1 ZZ   -0.388185
   17  S  1 XY    0.000000
   18  S  1 XZ    0.000000
   19  S  1 YZ    0.000000
   20  O  2  S    0.021424
   21  O  2  S    0.507824
   22  O  2  S   -0.930095
   23  O  2  X    0.039628
   24  O  2  Y    0.000000
   25  O  2  Z   -0.007122
   26  O  2  X   -0.590206
   27  O  2  Y    0.000000
   28  O  2  Z    0.114516
   29  O  2 XX   -0.701667
   30  O  2 YY    0.385081
   31  O  2 ZZ    0.316585
   32  O  2 XY    0.000000
   33  O  2 XZ    0.316987
   34  O  2 YZ    0.000000
   35  O  3  S    0.021424
   36  O  3  S    0.507824
   37  O  3  S   -0.930095
   38  O  3  X   -0.039628
   39  O  3  Y    0.000000
   40  O  3  Z   -0.007122
   41  O  3  X    0.590206
   42  O  3  Y    0.000000
   43  O  3  Z    0.114516
   44  O  3 XX   -0.701667
   45  O  3 YY    0.385081
   46  O  3 ZZ    0.316585
   47  O  3 XY    0.000000
   48  O  3 XZ   -0.316987
   49  O  3 YZ    0.000000
 ...... END OF RHF CALCULATION ......
 STEP CPU TIME =     4.26 TOTAL CPU TIME =        4.4 (    0.1 MIN)
 TOTAL WALL CLOCK TIME=        4.4 SECONDS, CPU UTILIZATION IS  99.77%

     ---------------------------------------------------------------------
     PROPERTIES FOR THE PBE      DFT FUNCTIONAL (RHF  TYPE) DENSITY MATRIX
     ---------------------------------------------------------------------

          -----------------
          ENERGY COMPONENTS
          -----------------

         WAVEFUNCTION NORMALIZATION =       1.0000000000

                ONE ELECTRON ENERGY =    -934.0599368897
                TWO ELECTRON ENERGY =     296.0925273598
           NUCLEAR REPULSION ENERGY =      89.8025158626
                                      ------------------
                       TOTAL ENERGY =    -548.1648936672

 ELECTRON-ELECTRON POTENTIAL ENERGY =     296.0925273598
  NUCLEUS-ELECTRON POTENTIAL ENERGY =   -1480.9691690707
   NUCLEUS-NUCLEUS POTENTIAL ENERGY =      89.8025158626
                                      ------------------
             TOTAL POTENTIAL ENERGY =   -1095.0741258482
               TOTAL KINETIC ENERGY =     546.9092321810
                 VIRIAL RATIO (V/T) =       2.0022959230

          ---------------------------------------
          MULLIKEN AND LOWDIN POPULATION ANALYSES
          ---------------------------------------

     ATOMIC MULLIKEN POPULATION IN EACH MOLECULAR ORBITAL

                      1          2          3          4          5

                  2.000000   2.000000   2.000000   2.000000   2.000000

    1             2.000005   0.001459   0.000509   2.000512   1.999860
    2            -0.000003   0.999271   0.999746  -0.000256   0.000070
    3            -0.000003   0.999271   0.999746  -0.000256   0.000070

                      6          7          8          9         10

                  2.000000   2.000000   2.000000   2.000000   2.000000

    1             2.000002   1.999987   0.576741   0.200755   1.151999
    2            -0.000001   0.000006   0.711630   0.899623   0.424001
    3            -0.000001   0.000006   0.711630   0.899623   0.424001

                     11         12         13         14         15

                  2.000000   2.000000   2.000000   2.000000   2.000000

    1             0.493576   1.108542   1.110452   0.054711   0.064554
    2             0.753212   0.445729   0.444774   0.972645   0.967723
    3             0.753212   0.445729   0.444774   0.972645   0.967723

                     16

                  2.000000

    1             0.471545
    2             0.764228
    3             0.764228

               ----- POPULATIONS IN EACH AO -----
                             MULLIKEN      LOWDIN
              1  S  1  S      2.00021     1.99608
              2  S  1  S      2.01068     1.97500
              3  S  1  S      1.02162     0.65431
              4  S  1  S      0.94588     0.57633
              5  S  1  X      1.99643     1.95240
              6  S  1  Y      1.99626     1.95469
              7  S  1  Z      1.99650     1.95690
              8  S  1  X      0.63906     0.58107
              9  S  1  Y      0.64507     0.62349
             10  S  1  Z      0.70080     0.67924
             11  S  1  X      0.06573     0.27895
             12  S  1  Y      0.46553     0.51287
             13  S  1  Z      0.46350     0.51945
             14  S  1 XX      0.04434     0.28916
             15  S  1 YY      0.12822     0.30581
             16  S  1 ZZ      0.05471     0.30170
             17  S  1 XY      0.05898     0.06453
             18  S  1 XZ      0.00169     0.07098
             19  S  1 YZ      0.00000     0.00158
             20  O  2  S      1.99808     1.98106
             21  O  2  S      0.85394     0.67077
             22  O  2  S      1.09844     0.59387
             23  O  2  X      0.89216     0.85853
             24  O  2  Y      0.84270     0.80961
             25  O  2  Z      0.97750     0.94566
             26  O  2  X      0.49780     0.57549
             27  O  2  Y      0.57263     0.60812
             28  O  2  Z      0.63748     0.67146
             29  O  2 XX      0.00149     0.21193
             30  O  2 YY      0.00416     0.21083
             31  O  2 ZZ      0.00296     0.20784
             32  O  2 XY      0.00297     0.00359
             33  O  2 XZ      0.00008     0.00387
             34  O  2 YZ      0.00000     0.00009
             35  O  3  S      1.99808     1.98106
             36  O  3  S      0.85394     0.67077
             37  O  3  S      1.09844     0.59387
             38  O  3  X      0.89216     0.85853
             39  O  3  Y      0.84270     0.80961
             40  O  3  Z      0.97750     0.94566
             41  O  3  X      0.49780     0.57549
             42  O  3  Y      0.57263     0.60812
             43  O  3  Z      0.63748     0.67146
             44  O  3 XX      0.00149     0.21193
             45  O  3 YY      0.00416     0.21083
             46  O  3 ZZ      0.00296     0.20784
             47  O  3 XY      0.00297     0.00359
             48  O  3 XZ      0.00008     0.00387
             49  O  3 YZ      0.00000     0.00009

          ----- MULLIKEN ATOMIC OVERLAP POPULATIONS -----
          (OFF-DIAGONAL ELEMENTS NEED TO BE MULTIPLIED BY 2)

             1           2           3

    1   14.9151082
    2    0.1600497   8.2188268
    3    0.1600497   0.0035196   8.2188268

          TOTAL MULLIKEN AND LOWDIN ATOMIC POPULATIONS
       ATOM         MULL.POP.    CHARGE          LOW.POP.     CHARGE
    1 S            15.235208    0.764792        15.294542    0.705458
    2 O             8.382396   -0.382396         8.352729   -0.352729
    3 O             8.382396   -0.382396         8.352729   -0.352729

          MULLIKEN SPHERICAL HARMONIC POPULATIONS
       ATOM           S       P       D      F      G      H      I    TOTAL
    1 S             5.98    8.97    0.29   0.00   0.00   0.00   0.00   15.24
    2 O             3.95    4.42    0.01   0.00   0.00   0.00   0.00    8.38
    3 O             3.95    4.42    0.01   0.00   0.00   0.00   0.00    8.38

          -------------------------------
          BOND ORDER AND VALENCE ANALYSIS     BOND ORDER THRESHOLD=0.050
          -------------------------------

                   BOND                       BOND                       BOND
  ATOM PAIR DIST  ORDER      ATOM PAIR DIST  ORDER      ATOM PAIR DIST  ORDER
    1   2  1.700  1.641        1   3  1.700  1.641        2   3  3.348  0.549

                       TOTAL       BONDED        FREE
      ATOM            VALENCE     VALENCE     VALENCE
    1 S                 3.281       3.281       0.000
    2 O                 2.190       2.190       0.000
    3 O                 2.190       2.190       0.000

          ---------------------
          ELECTROSTATIC MOMENTS
          ---------------------

 POINT   1           X           Y           Z (BOHR)    CHARGE
                 0.000000    0.000000    0.000000        0.00 (A.U.)
         DX          DY          DZ         /D/  (DEBYE)
     0.000000    0.000000   -0.475546    0.475546
 ...... END OF PROPERTY EVALUATION ......
 STEP CPU TIME =     0.01 TOTAL CPU TIME =        4.4 (    0.1 MIN)
 TOTAL WALL CLOCK TIME=        4.4 SECONDS, CPU UTILIZATION IS  99.78%
               580000  WORDS OF DYNAMIC MEMORY USED
 EXECUTION OF GAMESS TERMINATED NORMALLY Thu Feb 26 00:19:54 2015
 DDI: 263624 bytes (0.3 MB / 0 MWords) used by master data server.

 ----------------------------------------
 CPU timing information for all processes
 ========================================
 0: 4.415 + 0.32 = 4.448
 ----------------------------------------
 ddikick.x: exited gracefully.
----- accounting info -----
Files used on the master node dftfe.crc.nd.edu were:
-rw-r--r-- 1 pmehta1 campus   37475 Feb 26 00:19 /tmp/gamess.dat
-rw-r--r-- 1 pmehta1 campus     142 Feb 26 00:19 /tmp/gamess.F05
-rw-r--r-- 1 pmehta1 campus 1980264 Feb 26 00:19 /tmp/gamess.F08
-rw-r--r-- 1 pmehta1 campus 1220440 Feb 26 00:19 /tmp/gamess.F10
Thu Feb 26 00:19:57 EST 2015
0.245u 0.175s 0:07.87 5.2%	0+0k 0+104io 0pf+0w
