----- GAMESS execution script 'rungms' -----
This job is running on host dftfe.crc.nd.edu
under operating system Linux at Thu Feb 26 00:20:24 EST 2015
Available scratch disk space (Kbyte units) at beginning of the job is
Filesystem     1K-blocks     Used Available Use% Mounted on
/dev/sda2      147771864 22816508 117448924  17% /
GAMESS temporary binary files will be written to /tmp
GAMESS supplementary output files will be written to /tmp
Copying input file gamess.inp to your run's scratch directory...

 Distributed Data Interface kickoff program.
 Initiating 1 compute processes on 1 nodes to run the following command:
 /opt/crc/gamess/2012R1/gamess/gamess.00.x gamess 

          ******************************************************
          *         GAMESS VERSION =  1 MAY 2012 (R1)          *
          *             FROM IOWA STATE UNIVERSITY             *
          * M.W.SCHMIDT, K.K.BALDRIDGE, J.A.BOATZ, S.T.ELBERT, *
          *   M.S.GORDON, J.H.JENSEN, S.KOSEKI, N.MATSUNAGA,   *
          *          K.A.NGUYEN, S.J.SU, T.L.WINDUS,           *
          *       TOGETHER WITH M.DUPUIS, J.A.MONTGOMERY       *
          *         J.COMPUT.CHEM.  14, 1347-1363(1993)        *
          **************** 64 BIT LINUX VERSION ****************

  SINCE 1993, STUDENTS AND POSTDOCS WORKING AT IOWA STATE UNIVERSITY
  AND ALSO IN THEIR VARIOUS JOBS AFTER LEAVING ISU HAVE MADE IMPORTANT
  CONTRIBUTIONS TO THE CODE:
     IVANA ADAMOVIC, CHRISTINE AIKENS, YURI ALEXEEV, POOJA ARORA,
     ANDREY ASADCHEV, ROB BELL, PRADIPTA BANDYOPADHYAY, JONATHAN BENTZ,
     BRETT BODE, GALINA CHABAN, WEI CHEN, CHEOL HO CHOI, PAUL DAY,
     ALBERT DEFUSCO, TIM DUDLEY, DMITRI FEDOROV, GRAHAM FLETCHER,
     MARK FREITAG, KURT GLAESEMANN, DAN KEMP, GRANT MERRILL,
     NORIYUKI MINEZAWA, JONATHAN MULLIN, TAKESHI NAGATA,
     SEAN NEDD, HEATHER NETZLOFF, BOSILJKA NJEGIC, RYAN OLSON, MIKE PAK,
     JIM SHOEMAKER, LYUDMILA SLIPCHENKO, SAROM SOK, JIE SONG,
     TETSUYA TAKETSUGU, SIMON WEBB, SOOHAENG YOO, FEDERICO ZAHARIEV

  ADDITIONAL CODE HAS BEEN PROVIDED BY COLLABORATORS IN OTHER GROUPS:
     IOWA STATE UNIVERSITY:
          JOE IVANIC, LAIMUTIS BYTAUTAS, KLAUS RUEDENBERG
     UNIVERSITY OF TOKYO: KIMIHIKO HIRAO, TAKAHITO NAKAJIMA,
          TAKAO TSUNEDA, MUNEAKI KAMIYA, SUSUMU YANAGISAWA,
          KIYOSHI YAGI, MAHITO CHIBA, SEIKEN TOKURA, NAOAKI KAWAKAMI
     UNIVERSITY OF AARHUS: FRANK JENSEN
     UNIVERSITY OF IOWA: VISVALDAS KAIRYS, HUI LI
     NATIONAL INST. OF STANDARDS AND TECHNOLOGY: WALT STEVENS, DAVID GARMER
     UNIVERSITY OF PISA: BENEDETTA MENNUCCI, JACOPO TOMASI
     UNIVERSITY OF MEMPHIS: HENRY KURTZ, PRAKASHAN KORAMBATH
     UNIVERSITY OF ALBERTA: TOBY ZENG, MARIUSZ KLOBUKOWSKI
     UNIVERSITY OF NEW ENGLAND: MARK SPACKMAN
     MIE UNIVERSITY: HIROAKI UMEDA
     MICHIGAN STATE UNIVERSITY:
          KAROL KOWALSKI, MARTA WLOCH, JEFFREY GOUR, JESSE LUTZ, PIOTR PIECUCH
     UNIVERSITY OF SILESIA: MONIKA MUSIAL, STANISLAW KUCHARSKI
     FACULTES UNIVERSITAIRES NOTRE-DAME DE LA PAIX:
          OLIVIER QUINET, BENOIT CHAMPAGNE
     UNIVERSITY OF CALIFORNIA - SANTA BARBARA: BERNARD KIRTMAN
     INSTITUTE FOR MOLECULAR SCIENCE:
          KAZUYA ISHIMURA, MICHIO KATOUDA, AND SHIGERU NAGASE
     UNIVERSITY OF NOTRE DAME: DAN CHIPMAN
     KYUSHU UNIVERSITY:
          HARUYUKI NAKANO,
          FENG LONG GU, JACEK KORCHOWIEC, MARCIN MAKOWSKI, AND YURIKO AOKI,
          HIROTOSHI MORI AND EISAKU MIYOSHI
     PENNSYLVANIA STATE UNIVERSITY:
          TZVETELIN IORDANOV, CHET SWALINA, JONATHAN SKONE,
          SHARON HAMMES-SCHIFFER
     WASEDA UNIVERSITY:
          MASATO KOBAYASHI, TOMOKO AKAMA, TSUGUKI TOUMA,
          TAKESHI YOSHIKAWA, YASUHIRO IKABATA, HIROMI NAKAI
     UNIVERSITY OF NEBRASKA:
          PEIFENG SU, DEJUN SI, NANDUN THELLAMUREGE, YALI WANG, HUI LI
     UNIVERSITY OF ZURICH:
          ROBERTO PEVERATI, KIM BALDRIDGE
     N. COPERNICUS UNIVERSITY AND JACKSON STATE UNIVERSITY:
          MARIA BARYSZ

 EXECUTION OF GAMESS BEGUN Thu Feb 26 00:20:24 2015

            ECHO OF THE FIRST FEW INPUT CARDS -
 INPUT CARD> $BASIS GBASIS=PC1 $END                                                         
 INPUT CARD> $CONTRL COORD=ZMT ISPHER=1 RUNTYP=ENERGY DFTTYP=PBE $END                       
 INPUT CARD>                                                                                
 INPUT CARD> $DATA                                                                          
 INPUT CARD>Title                                                                           
 INPUT CARD>Cnv 2                                                                           
 INPUT CARD>                                                                                
 INPUT CARD>S                                                                               
 INPUT CARD>O 1 1.80                                                                        
 INPUT CARD>O 1 1.80 2 110.0                                                                
 INPUT CARD> $END                                                                           
    1000000 WORDS OF MEMORY AVAILABLE

     BASIS OPTIONS
     -------------
     GBASIS=PC1          IGAUSS=       0      POLAR=NONE    
     NDFUNC=       0     NFFUNC=       0     DIFFSP=       F
     NPFUNC=       0      DIFFS=       F     BASNAM=        


     RUN TITLE
     ---------
 Title                                                                           

 THE POINT GROUP OF THE MOLECULE IS CNV     
 THE ORDER OF THE PRINCIPAL AXIS IS     2

 YOUR FULLY SUBSTITUTED Z-MATRIX IS
 S   
 O      1   1.8000000
 O      1   1.8000000  2  110.0000

 THE MOMENTS OF INERTIA ARE (AMU-ANGSTROM**2)
 IXX=    17.045   IYY=    69.548   IZZ=    86.593

 ATOM      ATOMIC                      COORDINATES (BOHR)
           CHARGE         X                   Y                   Z
 S          16.0     0.0000000000        0.0000000000       -0.9757827813
 O           8.0    -2.7863512308        0.0000000000        0.9752413546
 O           8.0     2.7863512308        0.0000000000        0.9752413546

          INTERNUCLEAR DISTANCES (ANGS.)
          ------------------------------

                1 S          2 O          3 O     

   1 S       0.0000000    1.8000000 *  1.8000000 *
   2 O       1.8000000 *  0.0000000    2.9489474 *
   3 O       1.8000000 *  2.9489474 *  0.0000000  

  * ... LESS THAN  3.000


     ATOMIC BASIS SET
     ----------------
 THE CONTRACTED PRIMITIVE FUNCTIONS HAVE BEEN UNNORMALIZED
 THE CONTRACTED BASIS FUNCTIONS ARE NOW NORMALIZED TO UNITY

  SHELL TYPE  PRIMITIVE        EXPONENT          CONTRACTION COEFFICIENT(S)

 S         

      1   S       1         55510.0000000    0.000587229760
      1   S       2          8326.7000000    0.004532413947
      1   S       3          1895.6000000    0.023265261648
      1   S       4           536.7700000    0.089696133027
      1   S       5           174.6700000    0.254098332277
      1   S       6            62.5780000    0.438665087637
      1   S       7            23.5730000    0.314547135094
      1   S       8             5.8908000    0.032727897102

      2   S       9          8326.7000000   -0.000019755715
      2   S      10          1895.6000000   -0.000043822381
      2   S      11           536.7700000   -0.001730264906
      2   S      12           174.6700000   -0.009381263460
      2   S      13            62.5780000   -0.064050766303
      2   S      14            23.5730000   -0.082478179196
      2   S      15             5.8908000    0.478342956889
      2   S      16             2.1852000    0.626896670208

      3   S      17          1895.6000000    0.000016227260
      3   S      18           536.7700000    0.000191135619
      3   S      19           174.6700000    0.001952069674
      3   S      20            62.5780000    0.010578701087
      3   S      21            23.5730000    0.022164934551
      3   S      22             5.8908000   -0.184968323118
      3   S      23             2.1852000   -0.480920750976
      3   S      24             0.4528200    1.243822243872

      4   S      25             0.1620200    1.000000000000

      5   P      26           395.4500000    0.004642761329
      5   P      27            92.8340000    0.036023396489
      5   P      28            29.2660000    0.149058869978
      5   P      29            10.5950000    0.360033266263
      5   P      30             4.0272000    0.455756476221
      5   P      31             1.5484000    0.206167664178

      6   P      32            92.8340000    0.000169901442
      6   P      33            29.2660000   -0.002541839934
      6   P      34            10.5950000   -0.007867614595
      6   P      35             4.0272000   -0.037231009184
      6   P      36             1.5484000    0.161417246830
      6   P      37             0.4613400    0.902230419976

      7   P      38             0.1313100    1.000000000000

      8   D      39             0.5500000    1.000000000000

 O         

     15   S      40          2306.7000000    0.005424388755
     15   S      41           347.1500000    0.040474749465
     15   S      42            78.8900000    0.180219634554
     15   S      43            21.8760000    0.462370311787
     15   S      44             6.6646000    0.454888396263

     16   S      45           347.1500000   -0.000655003786
     16   S      46            78.8900000   -0.005362052952
     16   S      47            21.8760000   -0.074902158894
     16   S      48             6.6646000   -0.181442579655
     16   S      49             1.0669000    1.102006874042

     17   S      50             0.3070000    1.000000000000

     18   P      51            17.0220000    0.068979967443
     18   P      52             3.6838000    0.351985516325
     18   P      53             0.9923400    0.724036547822

     19   P      54             0.2448700    1.000000000000

     20   D      55             1.0000000    1.000000000000

 TOTAL NUMBER OF BASIS SET SHELLS             =   20
 NUMBER OF CARTESIAN GAUSSIAN BASIS FUNCTIONS =   49
 NOTE: THIS RUN WILL RESTRICT THE MO VARIATION SPACE TO SPHERICAL HARMONICS.
 THE NUMBER OF ORBITALS KEPT IN THE VARIATIONAL SPACE WILL BE PRINTED LATER.
 NUMBER OF ELECTRONS                          =   32
 CHARGE OF MOLECULE                           =    0
 SPIN MULTIPLICITY                            =    1
 NUMBER OF OCCUPIED ORBITALS (ALPHA)          =   16
 NUMBER OF OCCUPIED ORBITALS (BETA )          =   16
 TOTAL NUMBER OF ATOMS                        =    3
 THE NUCLEAR REPULSION ENERGY IS       86.7453179154

     LEBEDEV GRID-BASED DFT OPTIONS
     ------------------------------
     DFTTYP=PBE     
     NRAD  =      96     NLEB  =     302
     NRAD0 =      24     NLEB0 =     110
     SWOFF =    5.00E-03 (PURE SCF -> DFT)
     SWITCH=    3.00E-04 (COARSE -> TIGHT GRID)
     THRESH=    0.00E+00 GTHRE=    1.00E+00

 GRIMME'S EMPIRICAL DISPERSION CORRECTION= F

     $CONTRL OPTIONS
     ---------------
 SCFTYP=RHF          RUNTYP=ENERGY       EXETYP=RUN     
 MPLEVL=       0     CITYP =NONE         CCTYP =NONE         VBTYP =NONE    
 DFTTYP=PBE          TDDFT =NONE    
 MULT  =       1     ICHARG=       0     NZVAR =       0     COORD =ZMT     
 PP    =NONE         RELWFN=NONE         LOCAL =NONE         NUMGRD=       F
 ISPHER=       1     NOSYM =       0     MAXIT =      30     UNITS =ANGS    
 PLTORB=       F     MOLPLT=       F     AIMPAC=       F     FRIEND=        
 NPRINT=       7     IREST =       0     GEOM  =INPUT   
 NORMF =       0     NORMP =       0     ITOL  =      20     ICUT  =       9
 INTTYP=BEST         GRDTYP=BEST         QMTTOL= 1.0E-06

     $SYSTEM OPTIONS
     ---------------
  REPLICATED MEMORY=     1000000 WORDS (ON EVERY NODE).
 DISTRIBUTED MEMDDI=           0 MILLION WORDS IN AGGREGATE,
 MEMDDI DISTRIBUTED OVER   1 PROCESSORS IS           0 WORDS/PROCESSOR.
 TOTAL MEMORY REQUESTED ON EACH PROCESSOR=     1000000 WORDS.
 TIMLIM=      525600.00 MINUTES, OR     365.0 DAYS.
 PARALL= F  BALTYP=  DLB     KDIAG=    0  COREFL= F
 MXSEQ2=     300 MXSEQ3=     150

          ----------------
          PROPERTIES INPUT
          ----------------

     MOMENTS            FIELD           POTENTIAL          DENSITY
 IEMOM =       1   IEFLD =       0   IEPOT =       0   IEDEN =       0
 WHERE =COMASS     WHERE =NUCLEI     WHERE =NUCLEI     WHERE =NUCLEI  
 OUTPUT=BOTH       OUTPUT=BOTH       OUTPUT=BOTH       OUTPUT=BOTH    
 IEMINT=       0   IEFINT=       0                     IEDINT=       0
                                                       MORB  =       0
          EXTRAPOLATION IN EFFECT
          DIIS IN EFFECT
 ORBITAL PRINTING OPTION: NPREO=     1    49     2     1

     -------------------------------
     INTEGRAL TRANSFORMATION OPTIONS
     -------------------------------
     NWORD  =            0
     CUTOFF = 1.0E-09     MPTRAN =       0
     DIRTRF =       F     AOINTS =DUP     

          ----------------------
          INTEGRAL INPUT OPTIONS
          ----------------------
 NOPK  =       1 NORDER=       0 SCHWRZ=       F

   --- ENCODED Z MATRIX ---
 COORD  TYPE   I   J   K   L   M   N
    1      1    3   1
    2      1    2   1
    3      2    2   1   3

 THE DETERMINANT OF THE G MATRIX IS 10**(    -4)

 THE DETERMINANT OF THE G MATRIX IS 10**(    -4)
 * * * WARNING * * *
 YOUR B MATRIX HAS A SMALL DETERMINANT.
 THIS SUGGESTS YOU MAY HAVE BADLY CHOSEN COORDINATES.

     ------------------------------------------
     THE POINT GROUP IS CNV, NAXIS= 2, ORDER= 4
     ------------------------------------------

 -- VARIATIONAL SPACE WILL BE RESTRICTED TO PURE SPHERICAL HARMONICS ONLY --
 AFTER EXCLUDING CONTAMINANT COMBINATIONS FROM THE CARTESIAN GAUSSIAN BASIS
 SET, THE NUMBER OF SPHERICAL HARMONICS KEPT IN THE VARIATION SPACE IS   46

     DIMENSIONS OF THE SYMMETRY SUBSPACES ARE
 A1  =   19     A2  =    5     B1  =   14     B2  =    8

 ..... DONE SETTING UP THE RUN .....
 STEP CPU TIME =     0.01 TOTAL CPU TIME =        0.0 (    0.0 MIN)
 TOTAL WALL CLOCK TIME=        0.0 SECONDS, CPU UTILIZATION IS  50.00%

          ********************
          1 ELECTRON INTEGRALS
          ********************
 ...... END OF ONE-ELECTRON INTEGRALS ......
 STEP CPU TIME =     0.00 TOTAL CPU TIME =        0.0 (    0.0 MIN)
 TOTAL WALL CLOCK TIME=        0.0 SECONDS, CPU UTILIZATION IS  50.00%

          -------------
          GUESS OPTIONS
          -------------
          GUESS =HUCKEL            NORB  =       0          NORDER=       0
          MIX   =       F          PRTMO =       F          PUNMO =       F
          TOLZ  = 1.0E-08          TOLE  = 1.0E-05
          SYMDEN=       F          PURIFY=       F

 INITIAL GUESS ORBITALS GENERATED BY HUCKEL   ROUTINE.
 HUCKEL GUESS REQUIRES     21583 WORDS.

 STATISTICS FOR GENERATION OF SYMMETRY ORBITAL -Q- MATRIX
 NUMBER OF CARTESIAN ATOMIC ORBITALS=         49
 NUMBER OF SPHERICAL CONTAMINANTS DROPPED=     3
 NUMBER OF LINEARLY DEPENDENT MOS DROPPED=     0
 TOTAL NUMBER OF MOS IN VARIATION SPACE=      46

 SYMMETRIES FOR INITIAL GUESS ORBITALS FOLLOW.   BOTH SET(S).
    16 ORBITALS ARE OCCUPIED (    7 CORE ORBITALS).
     8=?A1      9=?B1     10=?A1     11=?B1     12=?B2     13=A1      14=?A2 
    15=B1      16=?A1     17=B2      18=A1      19=B1      20=A1      21=A1  
    22=A1      23=A1      24=A1      25=A1      26=A1  
 ...... END OF INITIAL ORBITAL SELECTION ......
 STEP CPU TIME =     0.01 TOTAL CPU TIME =        0.0 (    0.0 MIN)
 TOTAL WALL CLOCK TIME=        0.0 SECONDS, CPU UTILIZATION IS  66.67%

                    ----------------------
                    AO INTEGRAL TECHNOLOGY
                    ----------------------
     S,P,L SHELL ROTATED AXIS INTEGRALS, REPROGRAMMED BY
        KAZUYA ISHIMURA (IMS) AND JOSE SIERRA (SYNSTAR).
     S,P,D,L SHELL ROTATED AXIS INTEGRALS PROGRAMMED BY
        KAZUYA ISHIMURA (INSTITUTE FOR MOLECULAR SCIENCE).
     S,P,D,F,G SHELL TO TOTAL QUARTET ANGULAR MOMENTUM SUM 5,
        ERIC PROGRAM BY GRAHAM FLETCHER (ELORET AND NASA ADVANCED
        SUPERCOMPUTING DIVISION, AMES RESEARCH CENTER).
     S,P,D,F,G,L SHELL GENERAL RYS QUADRATURE PROGRAMMED BY
        MICHEL DUPUIS (PACIFIC NORTHWEST NATIONAL LABORATORY).

          --------------------
          2 ELECTRON INTEGRALS
          --------------------

 THE -PK- OPTION IS OFF, THE INTEGRALS ARE NOT IN SUPERMATRIX FORM.
 STORING   15000 INTEGRALS/RECORD ON DISK, USING 12 BYTES/INTEGRAL.
 TWO ELECTRON INTEGRAL EVALUATION REQUIRES   90606 WORDS OF MEMORY.
 II,JST,KST,LST =  1  1  1  1 NREC =         1 INTLOC =    1
 II,JST,KST,LST =  2  1  1  1 NREC =         1 INTLOC =    2
 II,JST,KST,LST =  3  1  1  1 NREC =         1 INTLOC =    7
 II,JST,KST,LST =  4  1  1  1 NREC =         1 INTLOC =   22
 II,JST,KST,LST =  5  1  1  1 NREC =         1 INTLOC =   56
 II,JST,KST,LST =  6  1  1  1 NREC =         1 INTLOC =  125
 II,JST,KST,LST =  7  1  1  1 NREC =         1 INTLOC =  329
 II,JST,KST,LST =  8  1  1  1 NREC =         1 INTLOC =  776
 II,JST,KST,LST =  9  1  1  1 NREC =         1 INTLOC = 2864
 II,JST,KST,LST = 10  1  1  1 NREC =         1 INTLOC = 2864
 II,JST,KST,LST = 11  1  1  1 NREC =         1 INTLOC = 2864
 II,JST,KST,LST = 12  1  1  1 NREC =         1 INTLOC = 2864
 II,JST,KST,LST = 13  1  1  1 NREC =         1 INTLOC = 2864
 II,JST,KST,LST = 14  1  1  1 NREC =         1 INTLOC = 2864
 II,JST,KST,LST = 15  1  1  1 NREC =         1 INTLOC = 2864
 II,JST,KST,LST = 16  1  1  1 NREC =         1 INTLOC = 4855
 II,JST,KST,LST = 17  1  1  1 NREC =         1 INTLOC = 7947
 II,JST,KST,LST = 18  1  1  1 NREC =         1 INTLOC =12311
 II,JST,KST,LST = 19  1  1  1 NREC =         2 INTLOC =14016
 II,JST,KST,LST = 20  1  1  1 NREC =         4 INTLOC =14635
 TOTAL NUMBER OF NONZERO TWO-ELECTRON INTEGRALS =              167681
         12 INTEGRAL RECORDS WERE STORED ON DISK FILE  8.
  ...... END OF TWO-ELECTRON INTEGRALS .....
 STEP CPU TIME =     0.16 TOTAL CPU TIME =        0.2 (    0.0 MIN)
 TOTAL WALL CLOCK TIME=        0.2 SECONDS, CPU UTILIZATION IS 100.00%

          --------------------------
               R-PBE SCF CALCULATION
          --------------------------

     NUCLEAR ENERGY =        86.7453179154
     MAXIT =   30     NPUNCH=    2
     EXTRAP=T  DAMP=F  SHIFT=F  RSTRCT=F  DIIS=T  DEM=F  SOSCF=F
         DENSITY MATRIX CONVERGENCE THRESHOLD=  1.00E-05
     COARSE -> FINE DFT GRID SWITCH THRESHOLD=  3.00E-04 (SWITCH IN $DFT)
                   HF -> DFT SWITCH THRESHOLD=  5.00E-03 (SWOFF IN $DFT)
     MEMORY REQUIRED FOR RHF ITERS=    183108 WORDS.

 DFT CODE IS SWITCHING FROM THE FINE GRID NRAD= 96,  NLEB=  302
                      TO THE COARSE GRID NRAD0= 24, NLEB0=  110

     EXCHANGE FUNCTIONAL   =PBE       
     CORRELATION FUNCTIONAL=PBE       
     DFT THRESHOLD         =.460E-07
     GRID CHANGE THRESHOLD =.300E-03
 FOR AN EULER-MACLAURIN QUADRATURE USING  96 RADIAL POINTS:
 SMALLEST GAUSSIAN PRIMITIVE EXPONENT=        0.1313100000 OF TYPE -P-
 ON ATOM NUMBER   1 HAS RADIAL NORMALIZATION=  1.000000
  LARGEST GAUSSIAN PRIMITIVE EXPONENT=    55510.0000000000 OF TYPE -S-
 ON ATOM NUMBER   1 HAS RADIAL NORMALIZATION=  0.999999
 DFT IS SWITCHED OFF, PERFORMING PURE SCF UNTIL SWOFF THRESHOLD IS REACHED.

 ITER EX DEM     TOTAL ENERGY        E CHANGE  DENSITY CHANGE    DIIS ERROR
   1  0  0     -545.8468039356  -545.8468039356   0.615122945   0.989556965
   2  1  0     -546.0596800924    -0.2128761567   0.726133362   0.577315184
   3  2  0     -545.7448418397     0.3148382527   0.933108131   0.601026276
   4  3  0     -544.7509611871     0.9938806526   1.052590420   1.019105936
   5  0  0     -544.1492089669     0.6017522201   0.675185808   0.861349578
          * * *   INITIATING DIIS PROCEDURE   * * *
   6  1  0     -546.8777568214    -2.7285478544   0.216080150   0.076190516
   7  2  0     -546.8861152192    -0.0083583979   0.076714450   0.099752052
   8  3  0     -546.9148153233    -0.0287001041   0.021756466   0.020251628
   9  4  0     -546.9172820512    -0.0024667279   0.019373847   0.012001704
  10  5  0     -546.9181845275    -0.0009024762   0.009123735   0.004200308
  11  6  0     -546.9184211477    -0.0002366202   0.008258505   0.002524899
  12  7  0     -546.9185111969    -0.0000900493   0.005714401   0.001381022
  13  8  0     -546.9185368480    -0.0000256511   0.001576134   0.000380442
 CONVERGED TO SWOFF, SO DFT CALCULATION IS NOW SWITCHED ON.
          * * *   INITIATING DIIS PROCEDURE   * * *
  14  9  0     -548.1052233703    -1.1866865223   0.442701134   0.104186205
  15 10  0     -548.0695639965     0.0356593738   0.384374680   0.183860805
  16 11  0     -548.0580792866     0.0114847099   0.127024094   0.235928360
  17 12  0     -548.1660879771    -0.1080086905   0.022311080   0.015684027
  18 13  0     -548.1670593158    -0.0009713388   0.002058074   0.002989242
  19 14  0     -548.1670796690    -0.0000203532   0.000706226   0.000620279
  20 15  0     -548.1670806135    -0.0000009445   0.000060721   0.000043041
 DFT CODE IS SWITCHING BACK TO THE FINE GRID
          * * *   INITIATING DIIS PROCEDURE   * * *
  21 16  0     -548.1644236809     0.0026569326   0.011390234   0.016168119
  22 17  0     -548.1646782588    -0.0002545779   0.022608943   0.005945990
  23 18  0     -548.1636840253     0.0009942334   0.018470729   0.022592222
  24 19  0     -548.1647654205    -0.0010813951   0.000619471   0.000278606
  25 20  0     -548.1647657642    -0.0000003438   0.000195686   0.000177207
  26 21  0     -548.1647658348    -0.0000000706   0.000008172   0.000018424
  27 22  0     -548.1647658355    -0.0000000007   0.000005489   0.000004110
  28 23  0     -548.1647658355     0.0000000000   0.000000210   0.000000250

          -----------------
          DENSITY CONVERGED
          -----------------
     TIME TO FORM FOCK OPERATORS=       4.2 SECONDS (       0.1 SEC/ITER)
     TIME TO SOLVE SCF EQUATIONS=       0.0 SECONDS (       0.0 SEC/ITER)

 FINAL R-PBE ENERGY IS     -548.1647658355 AFTER  28 ITERATIONS
 DFT EXCHANGE + CORRELATION ENERGY =       -42.1841830556
 TOTAL ELECTRON NUMBER             =        32.0000146719

          ------------
          EIGENVECTORS
          ------------

                      1          2          3          4          5
                  -88.2243   -18.8282   -18.8282    -7.8455    -5.8667
                     A1         A1         B1         A1         B1  
    1  S  1  S    1.002978  -0.000083   0.000000  -0.274120   0.000000
    2  S  1  S   -0.010264  -0.001230   0.000000   1.039627   0.000000
    3  S  1  S    0.001795  -0.002385   0.000000   0.040595   0.000000
    4  S  1  S   -0.001015   0.007920   0.000000  -0.012939   0.000000
    5  S  1  X    0.000000   0.000000   0.000118   0.000000   0.996868
    6  S  1  Y    0.000000   0.000000   0.000000   0.000000   0.000000
    7  S  1  Z    0.000054  -0.000106   0.000000   0.007670   0.000000
    8  S  1  X    0.000000   0.000000  -0.000705   0.000000   0.008971
    9  S  1  Y    0.000000   0.000000   0.000000   0.000000   0.000000
   10  S  1  Z    0.000014   0.000538   0.000000   0.000549   0.000000
   11  S  1  X    0.000000   0.000000  -0.003926   0.000000  -0.000149
   12  S  1  Y    0.000000   0.000000   0.000000   0.000000   0.000000
   13  S  1  Z   -0.000098   0.003722   0.000000  -0.000902   0.000000
   14  S  1 XX   -0.000008   0.001029   0.000000   0.000171   0.000000
   15  S  1 YY    0.000015  -0.001191   0.000000  -0.000039   0.000000
   16  S  1 ZZ   -0.000007   0.000162   0.000000  -0.000132   0.000000
   17  S  1 XY    0.000000   0.000000   0.000000   0.000000   0.000000
   18  S  1 XZ    0.000000   0.000000  -0.001370   0.000000   0.000396
   19  S  1 YZ    0.000000   0.000000   0.000000   0.000000   0.000000
   20  O  2  S   -0.000001   0.703265   0.703229   0.000010   0.000039
   21  O  2  S   -0.000021   0.025298   0.024871  -0.000115   0.000048
   22  O  2  S    0.000132  -0.011164  -0.010054   0.001070  -0.000014
   23  O  2  X    0.000004   0.000770   0.000632  -0.000067   0.000005
   24  O  2  Y    0.000000   0.000000   0.000000   0.000000   0.000000
   25  O  2  Z   -0.000009  -0.000430  -0.000554  -0.000006  -0.000007
   26  O  2  X    0.000020  -0.002815  -0.001597  -0.000013  -0.000035
   27  O  2  Y    0.000000   0.000000   0.000000   0.000000   0.000000
   28  O  2  Z    0.000013   0.001254   0.001676   0.000256   0.000019
   29  O  2 XX   -0.000025  -0.000301  -0.000103  -0.000319  -0.000068
   30  O  2 YY    0.000028   0.000220   0.000181   0.000344   0.000068
   31  O  2 ZZ   -0.000003   0.000080  -0.000078  -0.000026   0.000000
   32  O  2 XY    0.000000   0.000000   0.000000   0.000000   0.000000
   33  O  2 XZ    0.000047   0.000286   0.000278   0.000571   0.000109
   34  O  2 YZ    0.000000   0.000000   0.000000   0.000000   0.000000
   35  O  3  S   -0.000001   0.703265  -0.703229   0.000010  -0.000039
   36  O  3  S   -0.000021   0.025298  -0.024871  -0.000115  -0.000048
   37  O  3  S    0.000132  -0.011164   0.010054   0.001070   0.000014
   38  O  3  X   -0.000004  -0.000770   0.000632   0.000067   0.000005
   39  O  3  Y    0.000000   0.000000   0.000000   0.000000   0.000000
   40  O  3  Z   -0.000009  -0.000430   0.000554  -0.000006   0.000007
   41  O  3  X   -0.000020   0.002815  -0.001597   0.000013  -0.000035
   42  O  3  Y    0.000000   0.000000   0.000000   0.000000   0.000000
   43  O  3  Z    0.000013   0.001254  -0.001676   0.000256  -0.000019
   44  O  3 XX   -0.000025  -0.000301   0.000103  -0.000319   0.000068
   45  O  3 YY    0.000028   0.000220  -0.000181   0.000344  -0.000068
   46  O  3 ZZ   -0.000003   0.000080   0.000078  -0.000026   0.000000
   47  O  3 XY    0.000000   0.000000   0.000000   0.000000   0.000000
   48  O  3 XZ   -0.000047  -0.000286   0.000278  -0.000571   0.000109
   49  O  3 YZ    0.000000   0.000000   0.000000   0.000000   0.000000

                      6          7          8          9         10
                   -5.8642    -5.8626    -0.9243    -0.8776    -0.6579
                     B2         A1         A1         B1         A1  
    1  S  1  S    0.000000   0.002066   0.041622   0.000000   0.075480
    2  S  1  S    0.000000  -0.008085  -0.121077   0.000000  -0.215431
    3  S  1  S    0.000000  -0.000467   0.246611   0.000000   0.470824
    4  S  1  S    0.000000   0.000006   0.180524   0.000000   0.447681
    5  S  1  X    0.000000   0.000000   0.000000   0.069003   0.000000
    6  S  1  Y    0.996920   0.000000   0.000000   0.000000   0.000000
    7  S  1  Z    0.000000   0.996917  -0.040535   0.000000   0.024692
    8  S  1  X    0.000000   0.000000   0.000000  -0.140434   0.000000
    9  S  1  Y    0.008851   0.000000   0.000000   0.000000   0.000000
   10  S  1  Z    0.000000   0.008738   0.082453   0.000000  -0.049434
   11  S  1  X    0.000000   0.000000   0.000000  -0.031815   0.000000
   12  S  1  Y   -0.000174   0.000000   0.000000   0.000000   0.000000
   13  S  1  Z    0.000000  -0.000178   0.010921   0.000000  -0.041888
   14  S  1 XX    0.000000  -0.000211   0.021969   0.000000  -0.006628
   15  S  1 YY    0.000000  -0.000169  -0.021006   0.000000   0.009176
   16  S  1 ZZ    0.000000   0.000381  -0.000963   0.000000  -0.002547
   17  S  1 XY    0.000000   0.000000   0.000000   0.000000   0.000000
   18  S  1 XZ    0.000000   0.000000   0.000000  -0.041367   0.000000
   19  S  1 YZ    0.000317   0.000000   0.000000   0.000000   0.000000
   20  O  2  S    0.000000  -0.000034  -0.132325  -0.154496   0.092031
   21  O  2  S    0.000000  -0.000093   0.264416   0.313794  -0.192474
   22  O  2  S    0.000000   0.000143   0.330750   0.396955  -0.281459
   23  O  2  X    0.000000   0.000001   0.063595   0.050297   0.071299
   24  O  2  Y    0.000003   0.000000   0.000000   0.000000   0.000000
   25  O  2  Z    0.000000   0.000009  -0.043185  -0.040232  -0.053631
   26  O  2  X    0.000000   0.000079   0.033488   0.026613   0.032804
   27  O  2  Y   -0.000046   0.000000   0.000000   0.000000   0.000000
   28  O  2  Z    0.000000  -0.000131  -0.023275  -0.022543  -0.022111
   29  O  2 XX    0.000000   0.000052   0.005932   0.003134   0.003063
   30  O  2 YY    0.000000  -0.000073  -0.004158  -0.002045  -0.004347
   31  O  2 ZZ    0.000000   0.000021  -0.001774  -0.001089   0.001285
   32  O  2 XY   -0.000019   0.000000   0.000000   0.000000   0.000000
   33  O  2 XZ    0.000000  -0.000132  -0.010144  -0.008373  -0.004669
   34  O  2 YZ    0.000011   0.000000   0.000000   0.000000   0.000000
   35  O  3  S    0.000000  -0.000034  -0.132325   0.154496   0.092031
   36  O  3  S    0.000000  -0.000093   0.264416  -0.313794  -0.192474
   37  O  3  S    0.000000   0.000143   0.330750  -0.396955  -0.281459
   38  O  3  X    0.000000  -0.000001  -0.063595   0.050297  -0.071299
   39  O  3  Y    0.000003   0.000000   0.000000   0.000000   0.000000
   40  O  3  Z    0.000000   0.000009  -0.043185   0.040232  -0.053631
   41  O  3  X    0.000000  -0.000079  -0.033488   0.026613  -0.032804
   42  O  3  Y   -0.000046   0.000000   0.000000   0.000000   0.000000
   43  O  3  Z    0.000000  -0.000131  -0.023275   0.022543  -0.022111
   44  O  3 XX    0.000000   0.000052   0.005932  -0.003134   0.003063
   45  O  3 YY    0.000000  -0.000073  -0.004158   0.002045  -0.004347
   46  O  3 ZZ    0.000000   0.000021  -0.001774   0.001089   0.001285
   47  O  3 XY    0.000019   0.000000   0.000000   0.000000   0.000000
   48  O  3 XZ    0.000000   0.000132   0.010144  -0.008373   0.004669
   49  O  3 YZ    0.000011   0.000000   0.000000   0.000000   0.000000

                     11         12         13         14         15
                   -0.4221    -0.3963    -0.3825    -0.3011    -0.2880
                     B1         A1         B2         A2         A1  
    1  S  1  S    0.000000  -0.010468   0.000000   0.000000   0.012567
    2  S  1  S    0.000000   0.049120   0.000000   0.000000  -0.051320
    3  S  1  S    0.000000  -0.041295   0.000000   0.000000   0.061819
    4  S  1  S    0.000000  -0.215217   0.000000   0.000000   0.230329
    5  S  1  X   -0.187891   0.000000   0.000000   0.000000   0.000000
    6  S  1  Y    0.000000   0.000000  -0.215189   0.000000   0.000000
    7  S  1  Z    0.000000  -0.211885   0.000000   0.000000   0.044640
    8  S  1  X    0.443537   0.000000   0.000000   0.000000   0.000000
    9  S  1  Y    0.000000   0.000000   0.508072   0.000000   0.000000
   10  S  1  Z    0.000000   0.499516   0.000000   0.000000  -0.110666
   11  S  1  X    0.169016   0.000000   0.000000   0.000000   0.000000
   12  S  1  Y    0.000000   0.000000   0.336926   0.000000   0.000000
   13  S  1  Z    0.000000   0.262214   0.000000   0.000000  -0.008873
   14  S  1 XX    0.000000  -0.002286   0.000000   0.000000  -0.092051
   15  S  1 YY    0.000000  -0.021036   0.000000   0.000000   0.030511
   16  S  1 ZZ    0.000000   0.023322   0.000000   0.000000   0.061540
   17  S  1 XY    0.000000   0.000000   0.000000  -0.070533   0.000000
   18  S  1 XZ    0.039541   0.000000   0.000000   0.000000   0.000000
   19  S  1 YZ    0.000000   0.000000   0.027962   0.000000   0.000000
   20  O  2  S   -0.050428   0.028418   0.000000   0.000000  -0.001879
   21  O  2  S    0.104605  -0.059785   0.000000   0.000000   0.007951
   22  O  2  S    0.187930  -0.107208   0.000000   0.000000  -0.017884
   23  O  2  X   -0.245944   0.298367   0.000000   0.000000   0.056040
   24  O  2  Y    0.000000   0.000000   0.276515   0.476294   0.000000
   25  O  2  Z    0.245191  -0.010354   0.000000   0.000000   0.461890
   26  O  2  X   -0.148605   0.192680   0.000000   0.000000   0.036366
   27  O  2  Y    0.000000   0.000000   0.172642   0.336870   0.000000
   28  O  2  Z    0.150390  -0.008140   0.000000   0.000000   0.337332
   29  O  2 XX   -0.002756   0.013734   0.000000   0.000000   0.006280
   30  O  2 YY    0.007454  -0.005896   0.000000   0.000000   0.003335
   31  O  2 ZZ   -0.004698  -0.007838   0.000000   0.000000  -0.009614
   32  O  2 XY    0.000000   0.000000   0.011797   0.010234   0.000000
   33  O  2 XZ    0.012358  -0.004868   0.000000   0.000000   0.008881
   34  O  2 YZ    0.000000   0.000000  -0.008290  -0.008382   0.000000
   35  O  3  S    0.050428   0.028418   0.000000   0.000000  -0.001879
   36  O  3  S   -0.104605  -0.059785   0.000000   0.000000   0.007951
   37  O  3  S   -0.187930  -0.107208   0.000000   0.000000  -0.017884
   38  O  3  X   -0.245944  -0.298367   0.000000   0.000000  -0.056040
   39  O  3  Y    0.000000   0.000000   0.276515  -0.476294   0.000000
   40  O  3  Z   -0.245191  -0.010354   0.000000   0.000000   0.461890
   41  O  3  X   -0.148605  -0.192680   0.000000   0.000000  -0.036366
   42  O  3  Y    0.000000   0.000000   0.172642  -0.336870   0.000000
   43  O  3  Z   -0.150390  -0.008140   0.000000   0.000000   0.337332
   44  O  3 XX    0.002756   0.013734   0.000000   0.000000   0.006280
   45  O  3 YY   -0.007454  -0.005896   0.000000   0.000000   0.003335
   46  O  3 ZZ    0.004698  -0.007838   0.000000   0.000000  -0.009614
   47  O  3 XY    0.000000   0.000000  -0.011797   0.010234   0.000000
   48  O  3 XZ    0.012358   0.004868   0.000000   0.000000  -0.008881
   49  O  3 YZ    0.000000   0.000000  -0.008290   0.008382   0.000000

                     16         17         18         19         20
                   -0.2809    -0.2343    -0.1218    -0.1065     0.3294
                     B1         B2         A1         B1         B1  
    1  S  1  S    0.000000   0.000000   0.028855   0.000000   0.000000
    2  S  1  S    0.000000   0.000000  -0.078538   0.000000   0.000000
    3  S  1  S    0.000000   0.000000   0.199500   0.000000   0.000000
    4  S  1  S    0.000000   0.000000   0.377411   0.000000   0.000000
    5  S  1  X   -0.018151   0.000000   0.000000  -0.217295   0.276475
    6  S  1  Y    0.000000  -0.193741   0.000000   0.000000   0.000000
    7  S  1  Z    0.000000   0.000000  -0.192915   0.000000   0.000000
    8  S  1  X    0.036577   0.000000   0.000000   0.549710  -1.065519
    9  S  1  Y    0.000000   0.481817   0.000000   0.000000   0.000000
   10  S  1  Z    0.000000   0.000000   0.491527   0.000000   0.000000
   11  S  1  X    0.128032   0.000000   0.000000   0.684283   1.440930
   12  S  1  Y    0.000000   0.352293   0.000000   0.000000   0.000000
   13  S  1  Z    0.000000   0.000000   0.543261   0.000000   0.000000
   14  S  1 XX    0.000000   0.000000  -0.068833   0.000000   0.000000
   15  S  1 YY    0.000000   0.000000   0.101468   0.000000   0.000000
   16  S  1 ZZ    0.000000   0.000000  -0.032635   0.000000   0.000000
   17  S  1 XY    0.000000   0.000000   0.000000   0.000000   0.000000
   18  S  1 XZ   -0.062636   0.000000   0.000000  -0.143909  -0.130430
   19  S  1 YZ    0.000000  -0.043610   0.000000   0.000000   0.000000
   20  O  2  S   -0.002760   0.000000   0.033126  -0.034914  -0.011861
   21  O  2  S    0.002155   0.000000  -0.062391   0.060762  -0.033781
   22  O  2  S    0.041736   0.000000  -0.233207   0.282213   0.419750
   23  O  2  X    0.374338   0.000000  -0.390273   0.158412  -0.216207
   24  O  2  Y    0.000000  -0.401664   0.000000   0.000000   0.000000
   25  O  2  Z    0.299586   0.000000   0.068764  -0.315665   0.047452
   26  O  2  X    0.265017   0.000000  -0.344722   0.163196   0.111088
   27  O  2  Y    0.000000  -0.300292   0.000000   0.000000   0.000000
   28  O  2  Z    0.197322   0.000000   0.062230  -0.275896  -0.156299
   29  O  2 XX    0.010706   0.000000   0.003008   0.003482   0.022254
   30  O  2 YY   -0.000747   0.000000   0.001124   0.000857  -0.021045
   31  O  2 ZZ   -0.009959   0.000000  -0.004133  -0.004339  -0.001209
   32  O  2 XY    0.000000  -0.001858   0.000000   0.000000   0.000000
   33  O  2 XZ    0.000186   0.000000   0.001606   0.000824  -0.036042
   34  O  2 YZ    0.000000   0.001109   0.000000   0.000000   0.000000
   35  O  3  S    0.002760   0.000000   0.033126   0.034914   0.011861
   36  O  3  S   -0.002155   0.000000  -0.062391  -0.060762   0.033781
   37  O  3  S   -0.041736   0.000000  -0.233207  -0.282213  -0.419750
   38  O  3  X    0.374338   0.000000   0.390273   0.158412  -0.216207
   39  O  3  Y    0.000000  -0.401664   0.000000   0.000000   0.000000
   40  O  3  Z   -0.299586   0.000000   0.068764   0.315665  -0.047452
   41  O  3  X    0.265017   0.000000   0.344722   0.163196   0.111088
   42  O  3  Y    0.000000  -0.300292   0.000000   0.000000   0.000000
   43  O  3  Z   -0.197322   0.000000   0.062230   0.275896   0.156299
   44  O  3 XX   -0.010706   0.000000   0.003008  -0.003482  -0.022254
   45  O  3 YY    0.000747   0.000000   0.001124  -0.000857   0.021045
   46  O  3 ZZ    0.009959   0.000000  -0.004133   0.004339   0.001209
   47  O  3 XY    0.000000   0.001858   0.000000   0.000000   0.000000
   48  O  3 XZ    0.000186   0.000000  -0.001606   0.000824  -0.036042
   49  O  3 YZ    0.000000   0.001109   0.000000   0.000000   0.000000

                     21         22         23         24         25
                    0.3489     0.3641     0.4015     0.4701     0.4766
                     A1         B2         A1         A2         A1  
    1  S  1  S    0.006653   0.000000  -0.104379   0.000000   0.012711
    2  S  1  S   -0.035919   0.000000  -0.385420   0.000000   0.047945
    3  S  1  S    0.027673   0.000000  -1.623768   0.000000   0.199229
    4  S  1  S    0.245738   0.000000   1.978570   0.000000  -0.249509
    5  S  1  X    0.000000   0.000000   0.000000   0.000000   0.000000
    6  S  1  Y    0.000000   0.293962   0.000000   0.000000   0.000000
    7  S  1  Z    0.279129   0.000000  -0.019795   0.000000   0.056936
    8  S  1  X    0.000000   0.000000   0.000000   0.000000   0.000000
    9  S  1  Y    0.000000  -1.136358   0.000000   0.000000   0.000000
   10  S  1  Z   -1.080867   0.000000   0.062126   0.000000  -0.213145
   11  S  1  X    0.000000   0.000000   0.000000   0.000000   0.000000
   12  S  1  Y    0.000000   1.223709   0.000000   0.000000   0.000000
   13  S  1  Z    1.368168   0.000000   0.169921   0.000000   0.125208
   14  S  1 XX    0.049125   0.000000  -0.361022   0.000000  -0.468511
   15  S  1 YY    0.151721   0.000000   0.358778   0.000000  -0.373442
   16  S  1 ZZ   -0.200846   0.000000   0.002244   0.000000   0.841953
   17  S  1 XY    0.000000   0.000000   0.000000   0.884807   0.000000
   18  S  1 XZ    0.000000   0.000000   0.000000   0.000000   0.000000
   19  S  1 YZ    0.000000  -0.171440   0.000000   0.000000   0.000000
   20  O  2  S    0.012906   0.000000   0.017259   0.000000  -0.004542
   21  O  2  S    0.013426   0.000000  -0.039873   0.000000   0.016139
   22  O  2  S   -0.318988   0.000000  -0.240987   0.000000   0.011141
   23  O  2  X    0.090470   0.000000   0.021599   0.000000  -0.171618
   24  O  2  Y    0.000000  -0.071742   0.000000   0.296371   0.000000
   25  O  2  Z   -0.103547   0.000000  -0.127654   0.000000  -0.275095
   26  O  2  X   -0.211597   0.000000  -0.150530   0.000000   0.136423
   27  O  2  Y    0.000000  -0.097333   0.000000  -0.175453   0.000000
   28  O  2  Z    0.007378   0.000000   0.133189   0.000000   0.130942
   29  O  2 XX   -0.025081   0.000000  -0.012792   0.000000   0.039217
   30  O  2 YY    0.016990   0.000000   0.027385   0.000000  -0.005360
   31  O  2 ZZ    0.008091   0.000000  -0.014593   0.000000  -0.033857
   32  O  2 XY    0.000000  -0.011310   0.000000  -0.035825   0.000000
   33  O  2 XZ    0.017107   0.000000   0.040904   0.000000   0.021833
   34  O  2 YZ    0.000000   0.005398   0.000000   0.034816   0.000000
   35  O  3  S    0.012906   0.000000   0.017259   0.000000  -0.004542
   36  O  3  S    0.013426   0.000000  -0.039873   0.000000   0.016139
   37  O  3  S   -0.318988   0.000000  -0.240987   0.000000   0.011141
   38  O  3  X   -0.090470   0.000000  -0.021599   0.000000   0.171618
   39  O  3  Y    0.000000  -0.071742   0.000000  -0.296371   0.000000
   40  O  3  Z   -0.103547   0.000000  -0.127654   0.000000  -0.275095
   41  O  3  X    0.211597   0.000000   0.150530   0.000000  -0.136423
   42  O  3  Y    0.000000  -0.097333   0.000000   0.175453   0.000000
   43  O  3  Z    0.007378   0.000000   0.133189   0.000000   0.130942
   44  O  3 XX   -0.025081   0.000000  -0.012792   0.000000   0.039217
   45  O  3 YY    0.016990   0.000000   0.027385   0.000000  -0.005360
   46  O  3 ZZ    0.008091   0.000000  -0.014593   0.000000  -0.033857
   47  O  3 XY    0.000000   0.011310   0.000000  -0.035825   0.000000
   48  O  3 XZ   -0.017107   0.000000  -0.040904   0.000000  -0.021833
   49  O  3 YZ    0.000000   0.005398   0.000000  -0.034816   0.000000

                     26         27         28         29         30
                    0.4857     0.6382     0.6675     0.7934     0.8008
                     B2         A1         B1         A1         A2  
    1  S  1  S    0.000000  -0.050063   0.000000  -0.020646   0.000000
    2  S  1  S    0.000000  -0.266575   0.000000  -0.035284   0.000000
    3  S  1  S    0.000000  -0.883999   0.000000  -0.281509   0.000000
    4  S  1  S    0.000000   1.474170   0.000000  -0.154453   0.000000
    5  S  1  X    0.000000   0.000000   0.006601   0.000000   0.000000
    6  S  1  Y    0.046565   0.000000   0.000000   0.000000   0.000000
    7  S  1  Z    0.000000   0.000977   0.000000   0.036037   0.000000
    8  S  1  X    0.000000   0.000000  -0.049202   0.000000   0.000000
    9  S  1  Y   -0.175867   0.000000   0.000000   0.000000   0.000000
   10  S  1  Z    0.000000  -0.033347   0.000000  -0.182140   0.000000
   11  S  1  X    0.000000   0.000000   0.673659   0.000000   0.000000
   12  S  1  Y    0.125385   0.000000   0.000000   0.000000   0.000000
   13  S  1  Z    0.000000   0.519019   0.000000  -0.230346   0.000000
   14  S  1 XX    0.000000   0.692284   0.000000   0.350115   0.000000
   15  S  1 YY    0.000000  -0.834647   0.000000  -0.024217   0.000000
   16  S  1 ZZ    0.000000   0.142364   0.000000  -0.325899   0.000000
   17  S  1 XY    0.000000   0.000000   0.000000   0.000000   0.480318
   18  S  1 XZ    0.000000   0.000000   0.976408   0.000000   0.000000
   19  S  1 YZ    0.913125   0.000000   0.000000   0.000000   0.000000
   20  O  2  S    0.000000   0.055149  -0.055351  -0.013066   0.000000
   21  O  2  S    0.000000  -0.283079   0.286583   0.104000   0.000000
   22  O  2  S    0.000000  -0.194115   0.142960  -0.004349   0.000000
   23  O  2  X    0.000000   0.043691  -0.007417  -0.584768   0.000000
   24  O  2  Y   -0.245999   0.000000   0.000000   0.000000  -0.576179
   25  O  2  Z    0.000000   0.030034   0.059010  -0.035902   0.000000
   26  O  2  X    0.000000  -0.430516   0.367868   0.796577   0.000000
   27  O  2  Y    0.145859   0.000000   0.000000   0.000000   0.738516
   28  O  2  Z    0.000000   0.202003  -0.338075   0.054810   0.000000
   29  O  2 XX    0.000000  -0.008505  -0.035705  -0.042482   0.000000
   30  O  2 YY    0.000000  -0.011141   0.015436   0.006951   0.000000
   31  O  2 ZZ    0.000000   0.019646   0.020268   0.035531   0.000000
   32  O  2 XY    0.035135   0.000000   0.000000   0.000000  -0.032667
   33  O  2 XZ    0.000000  -0.003431   0.028823   0.005399   0.000000
   34  O  2 YZ   -0.010181   0.000000   0.000000   0.000000   0.027342
   35  O  3  S    0.000000   0.055149   0.055351  -0.013066   0.000000
   36  O  3  S    0.000000  -0.283079  -0.286583   0.104000   0.000000
   37  O  3  S    0.000000  -0.194115  -0.142960  -0.004349   0.000000
   38  O  3  X    0.000000  -0.043691  -0.007417   0.584768   0.000000
   39  O  3  Y   -0.245999   0.000000   0.000000   0.000000   0.576179
   40  O  3  Z    0.000000   0.030034  -0.059010  -0.035902   0.000000
   41  O  3  X    0.000000   0.430516   0.367868  -0.796577   0.000000
   42  O  3  Y    0.145859   0.000000   0.000000   0.000000  -0.738516
   43  O  3  Z    0.000000   0.202003   0.338075   0.054810   0.000000
   44  O  3 XX    0.000000  -0.008505   0.035705  -0.042482   0.000000
   45  O  3 YY    0.000000  -0.011141  -0.015436   0.006951   0.000000
   46  O  3 ZZ    0.000000   0.019646  -0.020268   0.035531   0.000000
   47  O  3 XY   -0.035135   0.000000   0.000000   0.000000  -0.032667
   48  O  3 XZ    0.000000   0.003431   0.028823  -0.005399   0.000000
   49  O  3 YZ   -0.010181   0.000000   0.000000   0.000000  -0.027342

                     31         32         33         34         35
                    0.8149     0.8280     0.8335     0.8624     1.5129
                     B1         B2         A1         B1         B1  
    1  S  1  S    0.000000   0.000000   0.022737   0.000000   0.000000
    2  S  1  S    0.000000   0.000000   0.065904   0.000000   0.000000
    3  S  1  S    0.000000   0.000000   0.343095   0.000000   0.000000
    4  S  1  S    0.000000   0.000000  -0.023764   0.000000   0.000000
    5  S  1  X    0.047873   0.000000   0.000000  -0.084924  -0.023116
    6  S  1  Y    0.000000  -0.030164   0.000000   0.000000   0.000000
    7  S  1  Z    0.000000   0.000000  -0.063133   0.000000   0.000000
    8  S  1  X   -0.240597   0.000000   0.000000   0.458553   0.089731
    9  S  1  Y    0.000000   0.159071   0.000000   0.000000   0.000000
   10  S  1  Z    0.000000   0.000000   0.334814   0.000000   0.000000
   11  S  1  X   -0.163518   0.000000   0.000000  -0.440013   0.907909
   12  S  1  Y    0.000000  -0.536523   0.000000   0.000000   0.000000
   13  S  1  Z    0.000000   0.000000  -0.411488   0.000000   0.000000
   14  S  1 XX    0.000000   0.000000   0.263730   0.000000   0.000000
   15  S  1 YY    0.000000   0.000000   0.106274   0.000000   0.000000
   16  S  1 ZZ    0.000000   0.000000  -0.370005   0.000000   0.000000
   17  S  1 XY    0.000000   0.000000   0.000000   0.000000   0.000000
   18  S  1 XZ    0.227057   0.000000   0.000000  -0.107599   0.419168
   19  S  1 YZ    0.000000  -0.381558   0.000000   0.000000   0.000000
   20  O  2  S    0.008936   0.000000   0.005653  -0.002397   0.015668
   21  O  2  S   -0.092546   0.000000  -0.053396   0.076745  -1.127659
   22  O  2  S    0.027664   0.000000   0.094354  -0.176383   1.526166
   23  O  2  X    0.032469   0.000000   0.091311  -0.622538  -0.063310
   24  O  2  Y    0.000000  -0.591177   0.000000   0.000000   0.000000
   25  O  2  Z   -0.625455   0.000000  -0.568682  -0.051946   0.094741
   26  O  2  X   -0.044057   0.000000  -0.106420   0.784189   0.348713
   27  O  2  Y    0.000000   0.827746   0.000000   0.000000   0.000000
   28  O  2  Z    0.790186   0.000000   0.790962   0.098569  -0.401668
   29  O  2 XX   -0.011975   0.000000  -0.010258  -0.026636  -0.072974
   30  O  2 YY   -0.004033   0.000000  -0.021220   0.024066   0.097061
   31  O  2 ZZ    0.016007   0.000000   0.031478   0.002570  -0.024087
   32  O  2 XY    0.000000  -0.035667   0.000000   0.000000   0.000000
   33  O  2 XZ   -0.011807   0.000000  -0.052012   0.020997   0.165072
   34  O  2 YZ    0.000000   0.018862   0.000000   0.000000   0.000000
   35  O  3  S   -0.008936   0.000000   0.005653   0.002397  -0.015668
   36  O  3  S    0.092546   0.000000  -0.053396  -0.076745   1.127659
   37  O  3  S   -0.027664   0.000000   0.094354   0.176383  -1.526166
   38  O  3  X    0.032469   0.000000  -0.091311  -0.622538  -0.063310
   39  O  3  Y    0.000000  -0.591177   0.000000   0.000000   0.000000
   40  O  3  Z    0.625455   0.000000  -0.568682   0.051946  -0.094741
   41  O  3  X   -0.044057   0.000000   0.106420   0.784189   0.348713
   42  O  3  Y    0.000000   0.827746   0.000000   0.000000   0.000000
   43  O  3  Z   -0.790186   0.000000   0.790962  -0.098569   0.401668
   44  O  3 XX    0.011975   0.000000  -0.010258   0.026636   0.072974
   45  O  3 YY    0.004033   0.000000  -0.021220  -0.024066  -0.097061
   46  O  3 ZZ   -0.016007   0.000000   0.031478  -0.002570   0.024087
   47  O  3 XY    0.000000   0.035667   0.000000   0.000000   0.000000
   48  O  3 XZ   -0.011807   0.000000   0.052012   0.020997   0.165072
   49  O  3 YZ    0.000000   0.018862   0.000000   0.000000   0.000000

                     36         37         38         39         40
                    1.6290     2.0893     2.0914     2.0929     2.0947
                     A1         B1         A2         B2         B1  
    1  S  1  S   -0.031408   0.000000   0.000000   0.000000   0.000000
    2  S  1  S   -0.300278   0.000000   0.000000   0.000000   0.000000
    3  S  1  S   -0.715091   0.000000   0.000000   0.000000   0.000000
    4  S  1  S    1.774886   0.000000   0.000000   0.000000   0.000000
    5  S  1  X    0.000000   0.007719   0.000000   0.000000  -0.009838
    6  S  1  Y    0.000000   0.000000   0.000000  -0.003495   0.000000
    7  S  1  Z   -0.012808   0.000000   0.000000   0.000000   0.000000
    8  S  1  X    0.000000  -0.005203   0.000000   0.000000   0.029429
    9  S  1  Y    0.000000   0.000000   0.000000   0.003023   0.000000
   10  S  1  Z    0.040341   0.000000   0.000000   0.000000   0.000000
   11  S  1  X    0.000000  -0.160554   0.000000   0.000000   0.071195
   12  S  1  Y    0.000000   0.000000   0.000000   0.037823   0.000000
   13  S  1  Z    0.801150   0.000000   0.000000   0.000000   0.000000
   14  S  1 XX    0.282563   0.000000   0.000000   0.000000   0.000000
   15  S  1 YY   -0.323168   0.000000   0.000000   0.000000   0.000000
   16  S  1 ZZ    0.040604   0.000000   0.000000   0.000000   0.000000
   17  S  1 XY    0.000000   0.000000   0.041474   0.000000   0.000000
   18  S  1 XZ    0.000000   0.037783   0.000000   0.000000  -0.011799
   19  S  1 YZ    0.000000   0.000000   0.000000   0.008756   0.000000
   20  O  2  S   -0.007439   0.000158   0.000000   0.000000  -0.000549
   21  O  2  S    1.130270   0.072399   0.000000   0.000000  -0.051072
   22  O  2  S   -1.647493  -0.126135   0.000000   0.000000   0.082484
   23  O  2  X    0.101746  -0.016281   0.000000   0.000000  -0.006323
   24  O  2  Y    0.000000   0.000000  -0.008755   0.011510   0.000000
   25  O  2  Z   -0.022410  -0.033288   0.000000   0.000000   0.015571
   26  O  2  X   -0.586658   0.004820   0.000000   0.000000   0.024743
   27  O  2  Y    0.000000   0.000000   0.012959  -0.020195   0.000000
   28  O  2  Z    0.229842   0.068725   0.000000   0.000000  -0.035307
   29  O  2 XX    0.164655   0.615706   0.000000   0.000000  -0.016576
   30  O  2 YY   -0.115117  -0.235521   0.000000   0.000000  -0.580296
   31  O  2 ZZ   -0.049539  -0.380185   0.000000   0.000000   0.596872
   32  O  2 XY    0.000000   0.000000   0.559895   0.240663   0.000000
   33  O  2 XZ   -0.155968   0.340692   0.000000   0.000000   0.194600
   34  O  2 YZ    0.000000   0.000000   0.432094   0.665199   0.000000
   35  O  3  S   -0.007439  -0.000158   0.000000   0.000000   0.000549
   36  O  3  S    1.130270  -0.072399   0.000000   0.000000   0.051072
   37  O  3  S   -1.647493   0.126135   0.000000   0.000000  -0.082484
   38  O  3  X   -0.101746  -0.016281   0.000000   0.000000  -0.006323
   39  O  3  Y    0.000000   0.000000   0.008755   0.011510   0.000000
   40  O  3  Z   -0.022410   0.033288   0.000000   0.000000  -0.015571
   41  O  3  X    0.586658   0.004820   0.000000   0.000000   0.024743
   42  O  3  Y    0.000000   0.000000  -0.012959  -0.020195   0.000000
   43  O  3  Z    0.229842  -0.068725   0.000000   0.000000   0.035307
   44  O  3 XX    0.164655  -0.615706   0.000000   0.000000   0.016576
   45  O  3 YY   -0.115117   0.235521   0.000000   0.000000   0.580296
   46  O  3 ZZ   -0.049539   0.380185   0.000000   0.000000  -0.596872
   47  O  3 XY    0.000000   0.000000   0.559895  -0.240663   0.000000
   48  O  3 XZ    0.155968   0.340692   0.000000   0.000000   0.194600
   49  O  3 YZ    0.000000   0.000000  -0.432094   0.665199   0.000000

                     41         42         43         44         45
                    2.0959     2.1215     2.1240     2.1934     2.3871
                     A1         A2         B2         A1         A1  
    1  S  1  S   -0.000395   0.000000   0.000000  -0.005631   0.004965
    2  S  1  S   -0.001466   0.000000   0.000000  -0.046425  -0.172291
    3  S  1  S   -0.006299   0.000000   0.000000  -0.119681  -0.159787
    4  S  1  S    0.005025   0.000000   0.000000   0.263091   1.031238
    5  S  1  X    0.000000   0.000000   0.000000   0.000000   0.000000
    6  S  1  Y    0.000000   0.000000   0.012272   0.000000   0.000000
    7  S  1  Z    0.000703   0.000000   0.000000  -0.008530  -0.086607
    8  S  1  X    0.000000   0.000000   0.000000   0.000000   0.000000
    9  S  1  Y    0.000000   0.000000  -0.007256   0.000000   0.000000
   10  S  1  Z   -0.002705   0.000000   0.000000  -0.005883   0.318091
   11  S  1  X    0.000000   0.000000   0.000000   0.000000   0.000000
   12  S  1  Y    0.000000   0.000000  -0.152559   0.000000   0.000000
   13  S  1  Z   -0.001355   0.000000   0.000000   0.261899   0.361387
   14  S  1 XX    0.017423   0.000000   0.000000  -0.194648   0.352570
   15  S  1 YY   -0.036571   0.000000   0.000000  -0.043578  -0.373946
   16  S  1 ZZ    0.019147   0.000000   0.000000   0.238226   0.021376
   17  S  1 XY    0.000000  -0.215032   0.000000   0.000000   0.000000
   18  S  1 XZ    0.000000   0.000000   0.000000   0.000000   0.000000
   19  S  1 YZ    0.000000   0.000000  -0.168191   0.000000   0.000000
   20  O  2  S    0.000992   0.000000   0.000000   0.001081   0.008836
   21  O  2  S   -0.002344   0.000000   0.000000   0.123713   0.539241
   22  O  2  S   -0.003452   0.000000   0.000000  -0.222165  -0.879606
   23  O  2  X   -0.007610   0.000000   0.000000   0.036092   0.098365
   24  O  2  Y    0.000000   0.028875  -0.044183   0.000000   0.000000
   25  O  2  Z   -0.000414   0.000000   0.000000   0.032562  -0.056188
   26  O  2  X    0.006883   0.000000   0.000000  -0.130419  -0.455585
   27  O  2  Y    0.000000  -0.048206   0.090224   0.000000   0.000000
   28  O  2  Z    0.003304   0.000000   0.000000  -0.051628   0.259049
   29  O  2 XX   -0.189969   0.000000   0.000000  -0.558575  -0.381113
   30  O  2 YY    0.609105   0.000000   0.000000  -0.013930   0.357844
   31  O  2 ZZ   -0.419137   0.000000   0.000000   0.572505   0.023269
   32  O  2 XY    0.000000  -0.434124   0.668550   0.000000   0.000000
   33  O  2 XZ   -0.333757   0.000000   0.000000  -0.283605   0.560877
   34  O  2 YZ    0.000000   0.560743  -0.244479   0.000000   0.000000
   35  O  3  S    0.000992   0.000000   0.000000   0.001081   0.008836
   36  O  3  S   -0.002344   0.000000   0.000000   0.123713   0.539241
   37  O  3  S   -0.003452   0.000000   0.000000  -0.222165  -0.879606
   38  O  3  X    0.007610   0.000000   0.000000  -0.036092  -0.098365
   39  O  3  Y    0.000000  -0.028875  -0.044183   0.000000   0.000000
   40  O  3  Z   -0.000414   0.000000   0.000000   0.032562  -0.056188
   41  O  3  X   -0.006883   0.000000   0.000000   0.130419   0.455585
   42  O  3  Y    0.000000   0.048206   0.090224   0.000000   0.000000
   43  O  3  Z    0.003304   0.000000   0.000000  -0.051628   0.259049
   44  O  3 XX   -0.189969   0.000000   0.000000  -0.558575  -0.381113
   45  O  3 YY    0.609105   0.000000   0.000000  -0.013930   0.357844
   46  O  3 ZZ   -0.419137   0.000000   0.000000   0.572505   0.023269
   47  O  3 XY    0.000000  -0.434124  -0.668550   0.000000   0.000000
   48  O  3 XZ    0.333757   0.000000   0.000000   0.283605  -0.560877
   49  O  3 YZ    0.000000  -0.560743  -0.244479   0.000000   0.000000

                     46
                    2.4637
                     B1  
    1  S  1  S    0.000000
    2  S  1  S    0.000000
    3  S  1  S    0.000000
    4  S  1  S    0.000000
    5  S  1  X   -0.120259
    6  S  1  Y    0.000000
    7  S  1  Z    0.000000
    8  S  1  X    0.447022
    9  S  1  Y    0.000000
   10  S  1  Z    0.000000
   11  S  1  X    0.352108
   12  S  1  Y    0.000000
   13  S  1  Z    0.000000
   14  S  1 XX    0.000000
   15  S  1 YY    0.000000
   16  S  1 ZZ    0.000000
   17  S  1 XY    0.000000
   18  S  1 XZ    0.538843
   19  S  1 YZ    0.000000
   20  O  2  S   -0.009602
   21  O  2  S   -0.433770
   22  O  2  S    0.695707
   23  O  2  X   -0.067515
   24  O  2  Y    0.000000
   25  O  2  Z    0.053377
   26  O  2  X    0.343965
   27  O  2  Y    0.000000
   28  O  2  Z   -0.274445
   29  O  2 XX    0.365233
   30  O  2 YY   -0.336661
   31  O  2 ZZ   -0.028572
   32  O  2 XY    0.000000
   33  O  2 XZ   -0.601957
   34  O  2 YZ    0.000000
   35  O  3  S    0.009602
   36  O  3  S    0.433770
   37  O  3  S   -0.695707
   38  O  3  X   -0.067515
   39  O  3  Y    0.000000
   40  O  3  Z   -0.053377
   41  O  3  X    0.343965
   42  O  3  Y    0.000000
   43  O  3  Z    0.274445
   44  O  3 XX   -0.365233
   45  O  3 YY    0.336661
   46  O  3 ZZ    0.028572
   47  O  3 XY    0.000000
   48  O  3 XZ   -0.601957
   49  O  3 YZ    0.000000
 ...... END OF RHF CALCULATION ......
 STEP CPU TIME =     4.24 TOTAL CPU TIME =        4.4 (    0.1 MIN)
 TOTAL WALL CLOCK TIME=        4.4 SECONDS, CPU UTILIZATION IS 100.00%

     ---------------------------------------------------------------------
     PROPERTIES FOR THE PBE      DFT FUNCTIONAL (RHF  TYPE) DENSITY MATRIX
     ---------------------------------------------------------------------

          -----------------
          ENERGY COMPONENTS
          -----------------

         WAVEFUNCTION NORMALIZATION =       1.0000000000

                ONE ELECTRON ENERGY =    -928.1483062070
                TWO ELECTRON ENERGY =     293.2382224560
           NUCLEAR REPULSION ENERGY =      86.7453179154
                                      ------------------
                       TOTAL ENERGY =    -548.1647658355

 ELECTRON-ELECTRON POTENTIAL ENERGY =     293.2382224560
  NUCLEUS-ELECTRON POTENTIAL ENERGY =   -1474.8470486744
   NUCLEUS-NUCLEUS POTENTIAL ENERGY =      86.7453179154
                                      ------------------
             TOTAL POTENTIAL ENERGY =   -1094.8635083029
               TOTAL KINETIC ENERGY =     546.6987424674
                 VIRIAL RATIO (V/T) =       2.0026815927

          ---------------------------------------
          MULLIKEN AND LOWDIN POPULATION ANALYSES
          ---------------------------------------

     ATOMIC MULLIKEN POPULATION IN EACH MOLECULAR ORBITAL

                      1          2          3          4          5

                  2.000000   2.000000   2.000000   2.000000   2.000000

    1             1.999999   0.000815   0.000576   1.999982   1.999989
    2             0.000001   0.999593   0.999712   0.000009   0.000006
    3             0.000001   0.999593   0.999712   0.000009   0.000006

                      6          7          8          9         10

                  2.000000   2.000000   2.000000   2.000000   2.000000

    1             2.000003   1.999977   0.536926   0.151822   1.329223
    2            -0.000001   0.000011   0.731537   0.924089   0.335388
    3            -0.000001   0.000011   0.731537   0.924089   0.335388

                     11         12         13         14         15

                  2.000000   2.000000   2.000000   2.000000   2.000000

    1             0.676485   1.076967   1.231416   0.028349   0.129493
    2             0.661757   0.461516   0.384292   0.985826   0.935253
    3             0.661757   0.461516   0.384292   0.985826   0.935253

                     16

                  2.000000

    1             0.076580
    2             0.961710
    3             0.961710

               ----- POPULATIONS IN EACH AO -----
                             MULLIKEN      LOWDIN
              1  S  1  S      2.00022     1.99602
              2  S  1  S      2.01057     1.97403
              3  S  1  S      1.01238     0.64285
              4  S  1  S      0.87387     0.55722
              5  S  1  X      1.99612     1.95276
              6  S  1  Y      1.99634     1.95703
              7  S  1  Z      1.99663     1.95843
              8  S  1  X      0.63164     0.58754
              9  S  1  Y      0.70733     0.68524
             10  S  1  Z      0.75461     0.72340
             11  S  1  X      0.22578     0.33948
             12  S  1  Y      0.52343     0.56802
             13  S  1  Z      0.36092     0.47085
             14  S  1 XX      0.02471     0.24463
             15  S  1 YY      0.03948     0.25359
             16  S  1 ZZ      0.02835     0.24890
             17  S  1 XY      0.05191     0.03256
             18  S  1 XZ      0.00431     0.06755
             19  S  1 YZ      0.00000     0.00414
             20  O  2  S      1.99804     1.98135
             21  O  2  S      0.85748     0.67332
             22  O  2  S      1.11610     0.61357
             23  O  2  X      0.84606     0.80745
             24  O  2  Y      0.82149     0.79170
             25  O  2  Z      1.00628     0.97345
             26  O  2  X      0.53894     0.60790
             27  O  2  Y      0.54639     0.58203
             28  O  2  Z      0.64053     0.69464
             29  O  2 XX      0.00131     0.21140
             30  O  2 YY      0.00221     0.21450
             31  O  2 ZZ      0.00146     0.20869
             32  O  2 XY      0.00363     0.00184
             33  O  2 XZ      0.00077     0.00511
             34  O  2 YZ      0.00000     0.00094
             35  O  3  S      1.99804     1.98135
             36  O  3  S      0.85748     0.67332
             37  O  3  S      1.11610     0.61357
             38  O  3  X      0.84606     0.80745
             39  O  3  Y      0.82149     0.79170
             40  O  3  Z      1.00628     0.97345
             41  O  3  X      0.53894     0.60790
             42  O  3  Y      0.54639     0.58203
             43  O  3  Z      0.64053     0.69464
             44  O  3 XX      0.00131     0.21140
             45  O  3 YY      0.00221     0.21450
             46  O  3 ZZ      0.00146     0.20869
             47  O  3 XY      0.00363     0.00184
             48  O  3 XZ      0.00077     0.00511
             49  O  3 YZ      0.00000     0.00094

          ----- MULLIKEN ATOMIC OVERLAP POPULATIONS -----
          (OFF-DIAGONAL ELEMENTS NEED TO BE MULTIPLIED BY 2)

             1           2           3

    1   14.7651095
    2    0.2367460   8.1665617
    3    0.2367460  -0.0226084   8.1665617

          TOTAL MULLIKEN AND LOWDIN ATOMIC POPULATIONS
       ATOM         MULL.POP.    CHARGE          LOW.POP.     CHARGE
    1 S            15.238601    0.761399        15.264236    0.735764
    2 O             8.380699   -0.380699         8.367882   -0.367882
    3 O             8.380699   -0.380699         8.367882   -0.367882

          MULLIKEN SPHERICAL HARMONIC POPULATIONS
       ATOM           S       P       D      F      G      H      I    TOTAL
    1 S             5.90    9.19    0.15   0.00   0.00   0.00   0.00   15.24
    2 O             3.97    4.40    0.01   0.00   0.00   0.00   0.00    8.38
    3 O             3.97    4.40    0.01   0.00   0.00   0.00   0.00    8.38

          -------------------------------
          BOND ORDER AND VALENCE ANALYSIS     BOND ORDER THRESHOLD=0.050
          -------------------------------

                   BOND                       BOND                       BOND
  ATOM PAIR DIST  ORDER      ATOM PAIR DIST  ORDER      ATOM PAIR DIST  ORDER
    1   2  1.800  1.579        1   3  1.800  1.579        2   3  2.949  0.530

                       TOTAL       BONDED        FREE
      ATOM            VALENCE     VALENCE     VALENCE
    1 S                 3.159       3.159       0.000
    2 O                 2.110       2.110       0.000
    3 O                 2.110       2.110       0.000

          ---------------------
          ELECTROSTATIC MOMENTS
          ---------------------

 POINT   1           X           Y           Z (BOHR)    CHARGE
                 0.000000    0.000000    0.000000        0.00 (A.U.)
         DX          DY          DZ         /D/  (DEBYE)
     0.000000    0.000000   -2.606502    2.606502
 ...... END OF PROPERTY EVALUATION ......
 STEP CPU TIME =     0.01 TOTAL CPU TIME =        4.4 (    0.1 MIN)
 TOTAL WALL CLOCK TIME=        4.4 SECONDS, CPU UTILIZATION IS 100.00%
               580000  WORDS OF DYNAMIC MEMORY USED
 EXECUTION OF GAMESS TERMINATED NORMALLY Thu Feb 26 00:20:29 2015
 DDI: 263624 bytes (0.3 MB / 0 MWords) used by master data server.

 ----------------------------------------
 CPU timing information for all processes
 ========================================
 0: 4.400 + 0.33 = 4.434
 ----------------------------------------
 ddikick.x: exited gracefully.
----- accounting info -----
Files used on the master node dftfe.crc.nd.edu were:
-rw-r--r-- 1 pmehta1 campus   37475 Feb 26 00:20 /tmp/gamess.dat
-rw-r--r-- 1 pmehta1 campus     142 Feb 26 00:20 /tmp/gamess.F05
-rw-r--r-- 1 pmehta1 campus 2160288 Feb 26 00:20 /tmp/gamess.F08
-rw-r--r-- 1 pmehta1 campus 1220440 Feb 26 00:20 /tmp/gamess.F10
Thu Feb 26 00:20:32 EST 2015
0.248u 0.177s 0:07.86 5.2%	0+0k 0+104io 0pf+0w
