----- GAMESS execution script 'rungms' -----
This job is running on host dftfe.crc.nd.edu
under operating system Linux at Thu Feb 26 00:20:40 EST 2015
Available scratch disk space (Kbyte units) at beginning of the job is
Filesystem     1K-blocks     Used Available Use% Mounted on
/dev/sda2      147771864 22816736 117448696  17% /
GAMESS temporary binary files will be written to /tmp
GAMESS supplementary output files will be written to /tmp
Copying input file gamess.inp to your run's scratch directory...

 Distributed Data Interface kickoff program.
 Initiating 1 compute processes on 1 nodes to run the following command:
 /opt/crc/gamess/2012R1/gamess/gamess.00.x gamess 

          ******************************************************
          *         GAMESS VERSION =  1 MAY 2012 (R1)          *
          *             FROM IOWA STATE UNIVERSITY             *
          * M.W.SCHMIDT, K.K.BALDRIDGE, J.A.BOATZ, S.T.ELBERT, *
          *   M.S.GORDON, J.H.JENSEN, S.KOSEKI, N.MATSUNAGA,   *
          *          K.A.NGUYEN, S.J.SU, T.L.WINDUS,           *
          *       TOGETHER WITH M.DUPUIS, J.A.MONTGOMERY       *
          *         J.COMPUT.CHEM.  14, 1347-1363(1993)        *
          **************** 64 BIT LINUX VERSION ****************

  SINCE 1993, STUDENTS AND POSTDOCS WORKING AT IOWA STATE UNIVERSITY
  AND ALSO IN THEIR VARIOUS JOBS AFTER LEAVING ISU HAVE MADE IMPORTANT
  CONTRIBUTIONS TO THE CODE:
     IVANA ADAMOVIC, CHRISTINE AIKENS, YURI ALEXEEV, POOJA ARORA,
     ANDREY ASADCHEV, ROB BELL, PRADIPTA BANDYOPADHYAY, JONATHAN BENTZ,
     BRETT BODE, GALINA CHABAN, WEI CHEN, CHEOL HO CHOI, PAUL DAY,
     ALBERT DEFUSCO, TIM DUDLEY, DMITRI FEDOROV, GRAHAM FLETCHER,
     MARK FREITAG, KURT GLAESEMANN, DAN KEMP, GRANT MERRILL,
     NORIYUKI MINEZAWA, JONATHAN MULLIN, TAKESHI NAGATA,
     SEAN NEDD, HEATHER NETZLOFF, BOSILJKA NJEGIC, RYAN OLSON, MIKE PAK,
     JIM SHOEMAKER, LYUDMILA SLIPCHENKO, SAROM SOK, JIE SONG,
     TETSUYA TAKETSUGU, SIMON WEBB, SOOHAENG YOO, FEDERICO ZAHARIEV

  ADDITIONAL CODE HAS BEEN PROVIDED BY COLLABORATORS IN OTHER GROUPS:
     IOWA STATE UNIVERSITY:
          JOE IVANIC, LAIMUTIS BYTAUTAS, KLAUS RUEDENBERG
     UNIVERSITY OF TOKYO: KIMIHIKO HIRAO, TAKAHITO NAKAJIMA,
          TAKAO TSUNEDA, MUNEAKI KAMIYA, SUSUMU YANAGISAWA,
          KIYOSHI YAGI, MAHITO CHIBA, SEIKEN TOKURA, NAOAKI KAWAKAMI
     UNIVERSITY OF AARHUS: FRANK JENSEN
     UNIVERSITY OF IOWA: VISVALDAS KAIRYS, HUI LI
     NATIONAL INST. OF STANDARDS AND TECHNOLOGY: WALT STEVENS, DAVID GARMER
     UNIVERSITY OF PISA: BENEDETTA MENNUCCI, JACOPO TOMASI
     UNIVERSITY OF MEMPHIS: HENRY KURTZ, PRAKASHAN KORAMBATH
     UNIVERSITY OF ALBERTA: TOBY ZENG, MARIUSZ KLOBUKOWSKI
     UNIVERSITY OF NEW ENGLAND: MARK SPACKMAN
     MIE UNIVERSITY: HIROAKI UMEDA
     MICHIGAN STATE UNIVERSITY:
          KAROL KOWALSKI, MARTA WLOCH, JEFFREY GOUR, JESSE LUTZ, PIOTR PIECUCH
     UNIVERSITY OF SILESIA: MONIKA MUSIAL, STANISLAW KUCHARSKI
     FACULTES UNIVERSITAIRES NOTRE-DAME DE LA PAIX:
          OLIVIER QUINET, BENOIT CHAMPAGNE
     UNIVERSITY OF CALIFORNIA - SANTA BARBARA: BERNARD KIRTMAN
     INSTITUTE FOR MOLECULAR SCIENCE:
          KAZUYA ISHIMURA, MICHIO KATOUDA, AND SHIGERU NAGASE
     UNIVERSITY OF NOTRE DAME: DAN CHIPMAN
     KYUSHU UNIVERSITY:
          HARUYUKI NAKANO,
          FENG LONG GU, JACEK KORCHOWIEC, MARCIN MAKOWSKI, AND YURIKO AOKI,
          HIROTOSHI MORI AND EISAKU MIYOSHI
     PENNSYLVANIA STATE UNIVERSITY:
          TZVETELIN IORDANOV, CHET SWALINA, JONATHAN SKONE,
          SHARON HAMMES-SCHIFFER
     WASEDA UNIVERSITY:
          MASATO KOBAYASHI, TOMOKO AKAMA, TSUGUKI TOUMA,
          TAKESHI YOSHIKAWA, YASUHIRO IKABATA, HIROMI NAKAI
     UNIVERSITY OF NEBRASKA:
          PEIFENG SU, DEJUN SI, NANDUN THELLAMUREGE, YALI WANG, HUI LI
     UNIVERSITY OF ZURICH:
          ROBERTO PEVERATI, KIM BALDRIDGE
     N. COPERNICUS UNIVERSITY AND JACKSON STATE UNIVERSITY:
          MARIA BARYSZ

 EXECUTION OF GAMESS BEGUN Thu Feb 26 00:20:40 2015

            ECHO OF THE FIRST FEW INPUT CARDS -
 INPUT CARD> $BASIS GBASIS=PC1 $END                                                         
 INPUT CARD> $CONTRL COORD=ZMT ISPHER=1 RUNTYP=ENERGY DFTTYP=PBE $END                       
 INPUT CARD>                                                                                
 INPUT CARD> $DATA                                                                          
 INPUT CARD>Title                                                                           
 INPUT CARD>Cnv 2                                                                           
 INPUT CARD>                                                                                
 INPUT CARD>S                                                                               
 INPUT CARD>O 1 1.80                                                                        
 INPUT CARD>O 1 1.80 2 130.0                                                                
 INPUT CARD> $END                                                                           
    1000000 WORDS OF MEMORY AVAILABLE

     BASIS OPTIONS
     -------------
     GBASIS=PC1          IGAUSS=       0      POLAR=NONE    
     NDFUNC=       0     NFFUNC=       0     DIFFSP=       F
     NPFUNC=       0      DIFFS=       F     BASNAM=        


     RUN TITLE
     ---------
 Title                                                                           

 THE POINT GROUP OF THE MOLECULE IS CNV     
 THE ORDER OF THE PRINCIPAL AXIS IS     2

 YOUR FULLY SUBSTITUTED Z-MATRIX IS
 S   
 O      1   1.8000000
 O      1   1.8000000  2  130.0000

 THE MOMENTS OF INERTIA ARE (AMU-ANGSTROM**2)
 IXX=     9.253   IYY=    85.135   IZZ=    94.388

 ATOM      ATOMIC                      COORDINATES (BOHR)
           CHARGE         X                   Y                   Z
 S          16.0     0.0000000000        0.0000000000       -0.7189689059
 O           8.0    -3.0828120805        0.0000000000        0.7185699759
 O           8.0     3.0828120805        0.0000000000        0.7185699759

          INTERNUCLEAR DISTANCES (ANGS.)
          ------------------------------

                1 S          2 O          3 O     

   1 S       0.0000000    1.8000000 *  1.8000000 *
   2 O       1.8000000 *  0.0000000    3.2627080  
   3 O       1.8000000 *  3.2627080    0.0000000  

  * ... LESS THAN  3.000


     ATOMIC BASIS SET
     ----------------
 THE CONTRACTED PRIMITIVE FUNCTIONS HAVE BEEN UNNORMALIZED
 THE CONTRACTED BASIS FUNCTIONS ARE NOW NORMALIZED TO UNITY

  SHELL TYPE  PRIMITIVE        EXPONENT          CONTRACTION COEFFICIENT(S)

 S         

      1   S       1         55510.0000000    0.000587229760
      1   S       2          8326.7000000    0.004532413947
      1   S       3          1895.6000000    0.023265261648
      1   S       4           536.7700000    0.089696133027
      1   S       5           174.6700000    0.254098332277
      1   S       6            62.5780000    0.438665087637
      1   S       7            23.5730000    0.314547135094
      1   S       8             5.8908000    0.032727897102

      2   S       9          8326.7000000   -0.000019755715
      2   S      10          1895.6000000   -0.000043822381
      2   S      11           536.7700000   -0.001730264906
      2   S      12           174.6700000   -0.009381263460
      2   S      13            62.5780000   -0.064050766303
      2   S      14            23.5730000   -0.082478179196
      2   S      15             5.8908000    0.478342956889
      2   S      16             2.1852000    0.626896670208

      3   S      17          1895.6000000    0.000016227260
      3   S      18           536.7700000    0.000191135619
      3   S      19           174.6700000    0.001952069674
      3   S      20            62.5780000    0.010578701087
      3   S      21            23.5730000    0.022164934551
      3   S      22             5.8908000   -0.184968323118
      3   S      23             2.1852000   -0.480920750976
      3   S      24             0.4528200    1.243822243872

      4   S      25             0.1620200    1.000000000000

      5   P      26           395.4500000    0.004642761329
      5   P      27            92.8340000    0.036023396489
      5   P      28            29.2660000    0.149058869978
      5   P      29            10.5950000    0.360033266263
      5   P      30             4.0272000    0.455756476221
      5   P      31             1.5484000    0.206167664178

      6   P      32            92.8340000    0.000169901442
      6   P      33            29.2660000   -0.002541839934
      6   P      34            10.5950000   -0.007867614595
      6   P      35             4.0272000   -0.037231009184
      6   P      36             1.5484000    0.161417246830
      6   P      37             0.4613400    0.902230419976

      7   P      38             0.1313100    1.000000000000

      8   D      39             0.5500000    1.000000000000

 O         

     15   S      40          2306.7000000    0.005424388755
     15   S      41           347.1500000    0.040474749465
     15   S      42            78.8900000    0.180219634554
     15   S      43            21.8760000    0.462370311787
     15   S      44             6.6646000    0.454888396263

     16   S      45           347.1500000   -0.000655003786
     16   S      46            78.8900000   -0.005362052952
     16   S      47            21.8760000   -0.074902158894
     16   S      48             6.6646000   -0.181442579655
     16   S      49             1.0669000    1.102006874042

     17   S      50             0.3070000    1.000000000000

     18   P      51            17.0220000    0.068979967443
     18   P      52             3.6838000    0.351985516325
     18   P      53             0.9923400    0.724036547822

     19   P      54             0.2448700    1.000000000000

     20   D      55             1.0000000    1.000000000000

 TOTAL NUMBER OF BASIS SET SHELLS             =   20
 NUMBER OF CARTESIAN GAUSSIAN BASIS FUNCTIONS =   49
 NOTE: THIS RUN WILL RESTRICT THE MO VARIATION SPACE TO SPHERICAL HARMONICS.
 THE NUMBER OF ORBITALS KEPT IN THE VARIATIONAL SPACE WILL BE PRINTED LATER.
 NUMBER OF ELECTRONS                          =   32
 CHARGE OF MOLECULE                           =    0
 SPIN MULTIPLICITY                            =    1
 NUMBER OF OCCUPIED ORBITALS (ALPHA)          =   16
 NUMBER OF OCCUPIED ORBITALS (BETA )          =   16
 TOTAL NUMBER OF ATOMS                        =    3
 THE NUCLEAR REPULSION ENERGY IS       85.6408975280

     LEBEDEV GRID-BASED DFT OPTIONS
     ------------------------------
     DFTTYP=PBE     
     NRAD  =      96     NLEB  =     302
     NRAD0 =      24     NLEB0 =     110
     SWOFF =    5.00E-03 (PURE SCF -> DFT)
     SWITCH=    3.00E-04 (COARSE -> TIGHT GRID)
     THRESH=    0.00E+00 GTHRE=    1.00E+00

 GRIMME'S EMPIRICAL DISPERSION CORRECTION= F

     $CONTRL OPTIONS
     ---------------
 SCFTYP=RHF          RUNTYP=ENERGY       EXETYP=RUN     
 MPLEVL=       0     CITYP =NONE         CCTYP =NONE         VBTYP =NONE    
 DFTTYP=PBE          TDDFT =NONE    
 MULT  =       1     ICHARG=       0     NZVAR =       0     COORD =ZMT     
 PP    =NONE         RELWFN=NONE         LOCAL =NONE         NUMGRD=       F
 ISPHER=       1     NOSYM =       0     MAXIT =      30     UNITS =ANGS    
 PLTORB=       F     MOLPLT=       F     AIMPAC=       F     FRIEND=        
 NPRINT=       7     IREST =       0     GEOM  =INPUT   
 NORMF =       0     NORMP =       0     ITOL  =      20     ICUT  =       9
 INTTYP=BEST         GRDTYP=BEST         QMTTOL= 1.0E-06

     $SYSTEM OPTIONS
     ---------------
  REPLICATED MEMORY=     1000000 WORDS (ON EVERY NODE).
 DISTRIBUTED MEMDDI=           0 MILLION WORDS IN AGGREGATE,
 MEMDDI DISTRIBUTED OVER   1 PROCESSORS IS           0 WORDS/PROCESSOR.
 TOTAL MEMORY REQUESTED ON EACH PROCESSOR=     1000000 WORDS.
 TIMLIM=      525600.00 MINUTES, OR     365.0 DAYS.
 PARALL= F  BALTYP=  DLB     KDIAG=    0  COREFL= F
 MXSEQ2=     300 MXSEQ3=     150

          ----------------
          PROPERTIES INPUT
          ----------------

     MOMENTS            FIELD           POTENTIAL          DENSITY
 IEMOM =       1   IEFLD =       0   IEPOT =       0   IEDEN =       0
 WHERE =COMASS     WHERE =NUCLEI     WHERE =NUCLEI     WHERE =NUCLEI  
 OUTPUT=BOTH       OUTPUT=BOTH       OUTPUT=BOTH       OUTPUT=BOTH    
 IEMINT=       0   IEFINT=       0                     IEDINT=       0
                                                       MORB  =       0
          EXTRAPOLATION IN EFFECT
          DIIS IN EFFECT
 ORBITAL PRINTING OPTION: NPREO=     1    49     2     1

     -------------------------------
     INTEGRAL TRANSFORMATION OPTIONS
     -------------------------------
     NWORD  =            0
     CUTOFF = 1.0E-09     MPTRAN =       0
     DIRTRF =       F     AOINTS =DUP     

          ----------------------
          INTEGRAL INPUT OPTIONS
          ----------------------
 NOPK  =       1 NORDER=       0 SCHWRZ=       F

   --- ENCODED Z MATRIX ---
 COORD  TYPE   I   J   K   L   M   N
    1      1    3   1
    2      1    2   1
    3      2    2   1   3

 THE DETERMINANT OF THE G MATRIX IS 10**(    -4)

 THE DETERMINANT OF THE G MATRIX IS 10**(    -4)
 * * * WARNING * * *
 YOUR B MATRIX HAS A SMALL DETERMINANT.
 THIS SUGGESTS YOU MAY HAVE BADLY CHOSEN COORDINATES.

     ------------------------------------------
     THE POINT GROUP IS CNV, NAXIS= 2, ORDER= 4
     ------------------------------------------

 -- VARIATIONAL SPACE WILL BE RESTRICTED TO PURE SPHERICAL HARMONICS ONLY --
 AFTER EXCLUDING CONTAMINANT COMBINATIONS FROM THE CARTESIAN GAUSSIAN BASIS
 SET, THE NUMBER OF SPHERICAL HARMONICS KEPT IN THE VARIATION SPACE IS   46

     DIMENSIONS OF THE SYMMETRY SUBSPACES ARE
 A1  =   19     A2  =    5     B1  =   14     B2  =    8

 ..... DONE SETTING UP THE RUN .....
 STEP CPU TIME =     0.01 TOTAL CPU TIME =        0.0 (    0.0 MIN)
 TOTAL WALL CLOCK TIME=        0.0 SECONDS, CPU UTILIZATION IS  50.00%

          ********************
          1 ELECTRON INTEGRALS
          ********************
 ...... END OF ONE-ELECTRON INTEGRALS ......
 STEP CPU TIME =     0.00 TOTAL CPU TIME =        0.0 (    0.0 MIN)
 TOTAL WALL CLOCK TIME=        0.0 SECONDS, CPU UTILIZATION IS  50.00%

          -------------
          GUESS OPTIONS
          -------------
          GUESS =HUCKEL            NORB  =       0          NORDER=       0
          MIX   =       F          PRTMO =       F          PUNMO =       F
          TOLZ  = 1.0E-08          TOLE  = 1.0E-05
          SYMDEN=       F          PURIFY=       F

 INITIAL GUESS ORBITALS GENERATED BY HUCKEL   ROUTINE.
 HUCKEL GUESS REQUIRES     21583 WORDS.

 STATISTICS FOR GENERATION OF SYMMETRY ORBITAL -Q- MATRIX
 NUMBER OF CARTESIAN ATOMIC ORBITALS=         49
 NUMBER OF SPHERICAL CONTAMINANTS DROPPED=     3
 NUMBER OF LINEARLY DEPENDENT MOS DROPPED=     0
 TOTAL NUMBER OF MOS IN VARIATION SPACE=      46

 SYMMETRIES FOR INITIAL GUESS ORBITALS FOLLOW.   BOTH SET(S).
    16 ORBITALS ARE OCCUPIED (    7 CORE ORBITALS).
     8=?A1      9=?B1     10=A1      11=B1      12=B2      13=A1      14=A2  
    15=B1      16=A1      17=B2      18=A1      19=B1      20=A1      21=A1  
    22=A1      23=A1      24=A1      25=A1      26=A1  
 ...... END OF INITIAL ORBITAL SELECTION ......
 STEP CPU TIME =     0.01 TOTAL CPU TIME =        0.0 (    0.0 MIN)
 TOTAL WALL CLOCK TIME=        0.0 SECONDS, CPU UTILIZATION IS  66.67%

                    ----------------------
                    AO INTEGRAL TECHNOLOGY
                    ----------------------
     S,P,L SHELL ROTATED AXIS INTEGRALS, REPROGRAMMED BY
        KAZUYA ISHIMURA (IMS) AND JOSE SIERRA (SYNSTAR).
     S,P,D,L SHELL ROTATED AXIS INTEGRALS PROGRAMMED BY
        KAZUYA ISHIMURA (INSTITUTE FOR MOLECULAR SCIENCE).
     S,P,D,F,G SHELL TO TOTAL QUARTET ANGULAR MOMENTUM SUM 5,
        ERIC PROGRAM BY GRAHAM FLETCHER (ELORET AND NASA ADVANCED
        SUPERCOMPUTING DIVISION, AMES RESEARCH CENTER).
     S,P,D,F,G,L SHELL GENERAL RYS QUADRATURE PROGRAMMED BY
        MICHEL DUPUIS (PACIFIC NORTHWEST NATIONAL LABORATORY).

          --------------------
          2 ELECTRON INTEGRALS
          --------------------

 THE -PK- OPTION IS OFF, THE INTEGRALS ARE NOT IN SUPERMATRIX FORM.
 STORING   15000 INTEGRALS/RECORD ON DISK, USING 12 BYTES/INTEGRAL.
 TWO ELECTRON INTEGRAL EVALUATION REQUIRES   90606 WORDS OF MEMORY.
 II,JST,KST,LST =  1  1  1  1 NREC =         1 INTLOC =    1
 II,JST,KST,LST =  2  1  1  1 NREC =         1 INTLOC =    2
 II,JST,KST,LST =  3  1  1  1 NREC =         1 INTLOC =    7
 II,JST,KST,LST =  4  1  1  1 NREC =         1 INTLOC =   22
 II,JST,KST,LST =  5  1  1  1 NREC =         1 INTLOC =   56
 II,JST,KST,LST =  6  1  1  1 NREC =         1 INTLOC =  125
 II,JST,KST,LST =  7  1  1  1 NREC =         1 INTLOC =  329
 II,JST,KST,LST =  8  1  1  1 NREC =         1 INTLOC =  776
 II,JST,KST,LST =  9  1  1  1 NREC =         1 INTLOC = 2864
 II,JST,KST,LST = 10  1  1  1 NREC =         1 INTLOC = 2864
 II,JST,KST,LST = 11  1  1  1 NREC =         1 INTLOC = 2864
 II,JST,KST,LST = 12  1  1  1 NREC =         1 INTLOC = 2864
 II,JST,KST,LST = 13  1  1  1 NREC =         1 INTLOC = 2864
 II,JST,KST,LST = 14  1  1  1 NREC =         1 INTLOC = 2864
 II,JST,KST,LST = 15  1  1  1 NREC =         1 INTLOC = 2864
 II,JST,KST,LST = 16  1  1  1 NREC =         1 INTLOC = 4843
 II,JST,KST,LST = 17  1  1  1 NREC =         1 INTLOC = 7864
 II,JST,KST,LST = 18  1  1  1 NREC =         1 INTLOC =12198
 II,JST,KST,LST = 19  1  1  1 NREC =         2 INTLOC =13020
 II,JST,KST,LST = 20  1  1  1 NREC =         4 INTLOC =13054
 TOTAL NUMBER OF NONZERO TWO-ELECTRON INTEGRALS =              155848
         11 INTEGRAL RECORDS WERE STORED ON DISK FILE  8.
  ...... END OF TWO-ELECTRON INTEGRALS .....
 STEP CPU TIME =     0.15 TOTAL CPU TIME =        0.2 (    0.0 MIN)
 TOTAL WALL CLOCK TIME=        0.2 SECONDS, CPU UTILIZATION IS  94.44%

          --------------------------
               R-PBE SCF CALCULATION
          --------------------------

     NUCLEAR ENERGY =        85.6408975280
     MAXIT =   30     NPUNCH=    2
     EXTRAP=T  DAMP=F  SHIFT=F  RSTRCT=F  DIIS=T  DEM=F  SOSCF=F
         DENSITY MATRIX CONVERGENCE THRESHOLD=  1.00E-05
     COARSE -> FINE DFT GRID SWITCH THRESHOLD=  3.00E-04 (SWITCH IN $DFT)
                   HF -> DFT SWITCH THRESHOLD=  5.00E-03 (SWOFF IN $DFT)
     MEMORY REQUIRED FOR RHF ITERS=    183108 WORDS.

 DFT CODE IS SWITCHING FROM THE FINE GRID NRAD= 96,  NLEB=  302
                      TO THE COARSE GRID NRAD0= 24, NLEB0=  110

     EXCHANGE FUNCTIONAL   =PBE       
     CORRELATION FUNCTIONAL=PBE       
     DFT THRESHOLD         =.460E-07
     GRID CHANGE THRESHOLD =.300E-03
 FOR AN EULER-MACLAURIN QUADRATURE USING  96 RADIAL POINTS:
 SMALLEST GAUSSIAN PRIMITIVE EXPONENT=        0.1313100000 OF TYPE -P-
 ON ATOM NUMBER   1 HAS RADIAL NORMALIZATION=  1.000000
  LARGEST GAUSSIAN PRIMITIVE EXPONENT=    55510.0000000000 OF TYPE -S-
 ON ATOM NUMBER   1 HAS RADIAL NORMALIZATION=  0.999999
 DFT IS SWITCHED OFF, PERFORMING PURE SCF UNTIL SWOFF THRESHOLD IS REACHED.

 ITER EX DEM     TOTAL ENERGY        E CHANGE  DENSITY CHANGE    DIIS ERROR
   1  0  0     -545.8357887196  -545.8357887196   0.592446667   0.945957508
   2  1  0     -546.0609159355    -0.2251272159   0.765005968   0.571090248
   3  2  0     -545.7432259109     0.3176900246   0.921113413   0.611319859
   4  3  0     -544.8633777891     0.8798481218   1.033353333   0.989269251
   5  0  0     -544.2878187860     0.5755590031   0.630797809   0.869709627
          * * *   INITIATING DIIS PROCEDURE   * * *
   6  1  0     -546.8754421156    -2.5876233296   0.201277190   0.066334528
   7  2  0     -546.8849703917    -0.0095282761   0.065301760   0.082540315
   8  3  0     -546.9045491064    -0.0195787147   0.025629761   0.020826466
   9  4  0     -546.9071515856    -0.0026024792   0.026631808   0.011052092
  10  5  0     -546.9085040964    -0.0013525108   0.014645838   0.004658947
  11  6  0     -546.9089818327    -0.0004777362   0.013156966   0.003322487
  12  7  0     -546.9091739487    -0.0001921161   0.006040375   0.001570014
  13  8  0     -546.9092034963    -0.0000295476   0.000961503   0.000219278
 CONVERGED TO SWOFF, SO DFT CALCULATION IS NOW SWITCHED ON.
          * * *   INITIATING DIIS PROCEDURE   * * *
  14  9  0     -548.0966660648    -1.1874625685   0.460175880   0.105709244
  15 10  0     -548.0655654876     0.0311005773   0.383853152   0.184833315
  16 11  0     -548.0527785527     0.0127869349   0.123891298   0.236515318
  17 12  0     -548.1642996148    -0.1115210622   0.019302854   0.014809526
  18 13  0     -548.1652577997    -0.0009581849   0.002901104   0.003817069
  19 14  0     -548.1652884582    -0.0000306585   0.000747749   0.000462320
  20 15  0     -548.1652892230    -0.0000007647   0.000107020   0.000070011
 DFT CODE IS SWITCHING BACK TO THE FINE GRID
          * * *   INITIATING DIIS PROCEDURE   * * *
  21 16  0     -548.1604881468     0.0048010762   0.012076995   0.016251056
  22 17  0     -548.1608239141    -0.0003357674   0.015690414   0.003497762
  23 18  0     -548.1602581835     0.0005657306   0.013657060   0.016836878
  24 19  0     -548.1608647266    -0.0006065431   0.000939201   0.000400617
  25 20  0     -548.1608654720    -0.0000007453   0.000218097   0.000197910
  26 21  0     -548.1608655724    -0.0000001005   0.000007272   0.000011140
  27 22  0     -548.1608655728    -0.0000000004   0.000006113   0.000004361
  28 23  0     -548.1608655728    -0.0000000001   0.000000299   0.000000231

          -----------------
          DENSITY CONVERGED
          -----------------
     TIME TO FORM FOCK OPERATORS=       4.2 SECONDS (       0.1 SEC/ITER)
     TIME TO SOLVE SCF EQUATIONS=       0.0 SECONDS (       0.0 SEC/ITER)

 FINAL R-PBE ENERGY IS     -548.1608655728 AFTER  28 ITERATIONS
 DFT EXCHANGE + CORRELATION ENERGY =       -42.1772252845
 TOTAL ELECTRON NUMBER             =        31.9999907641

          ------------
          EIGENVECTORS
          ------------

                      1          2          3          4          5
                  -88.2260   -18.8360   -18.8360    -7.8458    -5.8672
                     A1         B1         A1         A1         B1  
    1  S  1  S    1.002978   0.000000  -0.000061  -0.274130   0.000000
    2  S  1  S   -0.010276   0.000000  -0.000996   1.039524   0.000000
    3  S  1  S    0.001774   0.000000  -0.001841   0.040326   0.000000
    4  S  1  S   -0.000958   0.000000   0.006652  -0.012378   0.000000
    5  S  1  X    0.000000   0.000131   0.000000   0.000000   0.996891
    6  S  1  Y    0.000000   0.000000   0.000000   0.000000   0.000000
    7  S  1  Z    0.000058   0.000000  -0.000072   0.008749   0.000000
    8  S  1  X    0.000000  -0.000721   0.000000   0.000000   0.008890
    9  S  1  Y    0.000000   0.000000   0.000000   0.000000   0.000000
   10  S  1  Z    0.000005   0.000000   0.000391   0.000598   0.000000
   11  S  1  X    0.000000  -0.005198   0.000000   0.000000  -0.000116
   12  S  1  Y    0.000000   0.000000   0.000000   0.000000   0.000000
   13  S  1  Z   -0.000051   0.000000   0.002380  -0.000565   0.000000
   14  S  1 XX   -0.000003   0.000000   0.001316   0.000302   0.000000
   15  S  1 YY    0.000004   0.000000  -0.000983  -0.000126   0.000000
   16  S  1 ZZ   -0.000002   0.000000  -0.000333  -0.000176   0.000000
   17  S  1 XY    0.000000   0.000000   0.000000   0.000000   0.000000
   18  S  1 XZ    0.000000  -0.001289   0.000000   0.000000   0.000506
   19  S  1 YZ    0.000000   0.000000   0.000000   0.000000   0.000000
   20  O  2  S    0.000000   0.703253   0.703239   0.000022   0.000044
   21  O  2  S   -0.000005   0.025161   0.024992   0.000019   0.000057
   22  O  2  S    0.000090  -0.010954  -0.010218   0.000704  -0.000017
   23  O  2  X    0.000008   0.000686   0.000830  -0.000050   0.000004
   24  O  2  Y    0.000000   0.000000   0.000000   0.000000   0.000000
   25  O  2  Z   -0.000008  -0.000446  -0.000236  -0.000017  -0.000012
   26  O  2  X   -0.000005  -0.002082  -0.002636  -0.000258  -0.000038
   27  O  2  Y    0.000000   0.000000   0.000000   0.000000   0.000000
   28  O  2  Z    0.000019   0.001562   0.000640   0.000293   0.000047
   29  O  2 XX   -0.000041  -0.000185  -0.000332  -0.000507  -0.000106
   30  O  2 YY    0.000029   0.000171   0.000220   0.000359   0.000080
   31  O  2 ZZ    0.000012   0.000014   0.000112   0.000148   0.000026
   32  O  2 XY    0.000000   0.000000   0.000000   0.000000   0.000000
   33  O  2 XZ    0.000041   0.000252   0.000223   0.000494   0.000113
   34  O  2 YZ    0.000000   0.000000   0.000000   0.000000   0.000000
   35  O  3  S    0.000000  -0.703253   0.703239   0.000022  -0.000044
   36  O  3  S   -0.000005  -0.025161   0.024992   0.000019  -0.000057
   37  O  3  S    0.000090   0.010954  -0.010218   0.000704   0.000017
   38  O  3  X   -0.000008   0.000686  -0.000830   0.000050   0.000004
   39  O  3  Y    0.000000   0.000000   0.000000   0.000000   0.000000
   40  O  3  Z   -0.000008   0.000446  -0.000236  -0.000017   0.000012
   41  O  3  X    0.000005  -0.002082   0.002636   0.000258  -0.000038
   42  O  3  Y    0.000000   0.000000   0.000000   0.000000   0.000000
   43  O  3  Z    0.000019  -0.001562   0.000640   0.000293  -0.000047
   44  O  3 XX   -0.000041   0.000185  -0.000332  -0.000507   0.000106
   45  O  3 YY    0.000029  -0.000171   0.000220   0.000359  -0.000080
   46  O  3 ZZ    0.000012  -0.000014   0.000112   0.000148  -0.000026
   47  O  3 XY    0.000000   0.000000   0.000000   0.000000   0.000000
   48  O  3 XZ   -0.000041   0.000252  -0.000223  -0.000494   0.000113
   49  O  3 YZ    0.000000   0.000000   0.000000   0.000000   0.000000

                      6          7          8          9         10
                   -5.8647    -5.8626    -0.9263    -0.8887    -0.6576
                     B2         A1         A1         B1         A1  
    1  S  1  S    0.000000   0.002393   0.041278   0.000000   0.075274
    2  S  1  S    0.000000  -0.009218  -0.120954   0.000000  -0.214829
    3  S  1  S    0.000000  -0.000227   0.243281   0.000000   0.469558
    4  S  1  S    0.000000  -0.000186   0.182570   0.000000   0.444613
    5  S  1  X    0.000000   0.000000   0.000000   0.073805   0.000000
    6  S  1  Y    0.996945   0.000000   0.000000   0.000000   0.000000
    7  S  1  Z    0.000000   0.996943  -0.031849   0.000000   0.011333
    8  S  1  X    0.000000   0.000000   0.000000  -0.149260   0.000000
    9  S  1  Y    0.008772   0.000000   0.000000   0.000000   0.000000
   10  S  1  Z    0.000000   0.008639   0.065664   0.000000  -0.019331
   11  S  1  X    0.000000   0.000000   0.000000  -0.030112   0.000000
   12  S  1  Y   -0.000147   0.000000   0.000000   0.000000   0.000000
   13  S  1  Z    0.000000  -0.000169   0.010881   0.000000  -0.025261
   14  S  1 XX    0.000000  -0.000323   0.031439   0.000000  -0.009878
   15  S  1 YY    0.000000  -0.000210  -0.021385   0.000000   0.008895
   16  S  1 ZZ    0.000000   0.000533  -0.010054   0.000000   0.000983
   17  S  1 XY    0.000000   0.000000   0.000000   0.000000   0.000000
   18  S  1 XZ    0.000000   0.000000   0.000000  -0.033656   0.000000
   19  S  1 YZ    0.000435   0.000000   0.000000   0.000000   0.000000
   20  O  2  S    0.000000  -0.000029  -0.133653  -0.153629   0.093071
   21  O  2  S    0.000000  -0.000105   0.268348   0.310941  -0.194838
   22  O  2  S    0.000000   0.000197   0.333435   0.395391  -0.288121
   23  O  2  X    0.000000   0.000001   0.068125   0.058192   0.088519
   24  O  2  Y    0.000003   0.000000   0.000000   0.000000   0.000000
   25  O  2  Z    0.000000   0.000007  -0.030121  -0.028110  -0.041164
   26  O  2  X    0.000000   0.000129   0.035327   0.032658   0.041369
   27  O  2  Y   -0.000048   0.000000   0.000000   0.000000   0.000000
   28  O  2  Z    0.000000  -0.000128  -0.015729  -0.016661  -0.015450
   29  O  2 XX    0.000000   0.000079   0.008677   0.006660   0.004791
   30  O  2 YY    0.000000  -0.000065  -0.003916  -0.002561  -0.004566
   31  O  2 ZZ    0.000000  -0.000014  -0.004762  -0.004099  -0.000225
   32  O  2 XY   -0.000021   0.000000   0.000000   0.000000   0.000000
   33  O  2 XZ    0.000000  -0.000109  -0.006683  -0.005873  -0.004702
   34  O  2 YZ    0.000006   0.000000   0.000000   0.000000   0.000000
   35  O  3  S    0.000000  -0.000029  -0.133653   0.153629   0.093071
   36  O  3  S    0.000000  -0.000105   0.268348  -0.310941  -0.194838
   37  O  3  S    0.000000   0.000197   0.333435  -0.395391  -0.288121
   38  O  3  X    0.000000  -0.000001  -0.068125   0.058192  -0.088519
   39  O  3  Y    0.000003   0.000000   0.000000   0.000000   0.000000
   40  O  3  Z    0.000000   0.000007  -0.030121   0.028110  -0.041164
   41  O  3  X    0.000000  -0.000129  -0.035327   0.032658  -0.041369
   42  O  3  Y   -0.000048   0.000000   0.000000   0.000000   0.000000
   43  O  3  Z    0.000000  -0.000128  -0.015729   0.016661  -0.015450
   44  O  3 XX    0.000000   0.000079   0.008677  -0.006660   0.004791
   45  O  3 YY    0.000000  -0.000065  -0.003916   0.002561  -0.004566
   46  O  3 ZZ    0.000000  -0.000014  -0.004762   0.004099  -0.000225
   47  O  3 XY    0.000021   0.000000   0.000000   0.000000   0.000000
   48  O  3 XZ    0.000000   0.000109   0.006683  -0.005873   0.004702
   49  O  3 YZ    0.000006   0.000000   0.000000   0.000000   0.000000

                     11         12         13         14         15
                   -0.4303    -0.3896    -0.3840    -0.3104    -0.2978
                     B1         A1         B2         A2         B1  
    1  S  1  S    0.000000  -0.010915   0.000000   0.000000   0.000000
    2  S  1  S    0.000000   0.044062   0.000000   0.000000   0.000000
    3  S  1  S    0.000000  -0.052582   0.000000   0.000000   0.000000
    4  S  1  S    0.000000  -0.178433   0.000000   0.000000   0.000000
    5  S  1  X   -0.183837   0.000000   0.000000   0.000000  -0.020138
    6  S  1  Y    0.000000   0.000000  -0.211670   0.000000   0.000000
    7  S  1  Z    0.000000  -0.212142   0.000000   0.000000   0.000000
    8  S  1  X    0.434069   0.000000   0.000000   0.000000   0.042910
    9  S  1  Y    0.000000   0.000000   0.499336   0.000000   0.000000
   10  S  1  Z    0.000000   0.499453   0.000000   0.000000   0.000000
   11  S  1  X    0.133347   0.000000   0.000000   0.000000   0.109191
   12  S  1  Y    0.000000   0.000000   0.330804   0.000000   0.000000
   13  S  1  Z    0.000000   0.294007   0.000000   0.000000   0.000000
   14  S  1 XX    0.000000  -0.000454   0.000000   0.000000   0.000000
   15  S  1 YY    0.000000  -0.021320   0.000000   0.000000   0.000000
   16  S  1 ZZ    0.000000   0.021774   0.000000   0.000000   0.000000
   17  S  1 XY    0.000000   0.000000   0.000000  -0.075587   0.000000
   18  S  1 XZ    0.034531   0.000000   0.000000   0.000000  -0.068736
   19  S  1 YZ    0.000000   0.000000   0.025620   0.000000   0.000000
   20  O  2  S   -0.051910   0.018994   0.000000   0.000000  -0.002685
   21  O  2  S    0.111022  -0.038866   0.000000   0.000000   0.000421
   22  O  2  S    0.183323  -0.076710   0.000000   0.000000   0.041698
   23  O  2  X   -0.308181   0.270295   0.000000   0.000000   0.271604
   24  O  2  Y    0.000000   0.000000   0.284637   0.473875   0.000000
   25  O  2  Z    0.174907   0.109185   0.000000   0.000000   0.386663
   26  O  2  X   -0.189219   0.173934   0.000000   0.000000   0.198977
   27  O  2  Y    0.000000   0.000000   0.178146   0.336251   0.000000
   28  O  2  Z    0.112002   0.068835   0.000000   0.000000   0.265049
   29  O  2 XX   -0.008389   0.013592   0.000000   0.000000   0.009493
   30  O  2 YY    0.007868  -0.004359   0.000000   0.000000  -0.000353
   31  O  2 ZZ    0.000521  -0.009232   0.000000   0.000000  -0.009140
   32  O  2 XY    0.000000   0.000000   0.012960   0.011897   0.000000
   33  O  2 XZ    0.011753   0.002392   0.000000   0.000000   0.006908
   34  O  2 YZ    0.000000   0.000000  -0.005934  -0.006027   0.000000
   35  O  3  S    0.051910   0.018994   0.000000   0.000000   0.002685
   36  O  3  S   -0.111022  -0.038866   0.000000   0.000000  -0.000421
   37  O  3  S   -0.183323  -0.076710   0.000000   0.000000  -0.041698
   38  O  3  X   -0.308181  -0.270295   0.000000   0.000000   0.271604
   39  O  3  Y    0.000000   0.000000   0.284637  -0.473875   0.000000
   40  O  3  Z   -0.174907   0.109185   0.000000   0.000000  -0.386663
   41  O  3  X   -0.189219  -0.173934   0.000000   0.000000   0.198977
   42  O  3  Y    0.000000   0.000000   0.178146  -0.336251   0.000000
   43  O  3  Z   -0.112002   0.068835   0.000000   0.000000  -0.265049
   44  O  3 XX    0.008389   0.013592   0.000000   0.000000  -0.009493
   45  O  3 YY   -0.007868  -0.004359   0.000000   0.000000   0.000353
   46  O  3 ZZ   -0.000521  -0.009232   0.000000   0.000000   0.009140
   47  O  3 XY    0.000000   0.000000  -0.012960   0.011897   0.000000
   48  O  3 XZ    0.011753  -0.002392   0.000000   0.000000   0.006908
   49  O  3 YZ    0.000000   0.000000  -0.005934   0.006027   0.000000

                     16         17         18         19         20
                   -0.2862    -0.2352    -0.1657    -0.0650     0.3251
                     A1         B2         A1         B1         B1  
    1  S  1  S    0.017183   0.000000   0.023909   0.000000   0.000000
    2  S  1  S   -0.069034   0.000000  -0.069492   0.000000   0.000000
    3  S  1  S    0.085970   0.000000   0.158582   0.000000   0.000000
    4  S  1  S    0.307057   0.000000   0.327759   0.000000   0.000000
    5  S  1  X    0.000000   0.000000   0.000000  -0.227698   0.264673
    6  S  1  Y    0.000000  -0.197945   0.000000   0.000000   0.000000
    7  S  1  Z    0.052173   0.000000  -0.191513   0.000000   0.000000
    8  S  1  X    0.000000   0.000000   0.000000   0.584482  -1.027381
    9  S  1  Y    0.000000   0.492599   0.000000   0.000000   0.000000
   10  S  1  Z   -0.129284   0.000000   0.485378   0.000000   0.000000
   11  S  1  X    0.000000   0.000000   0.000000   0.761651   1.537343
   12  S  1  Y    0.000000   0.355514   0.000000   0.000000   0.000000
   13  S  1  Z   -0.019465   0.000000   0.450293   0.000000   0.000000
   14  S  1 XX   -0.103484   0.000000  -0.082668   0.000000   0.000000
   15  S  1 YY    0.042478   0.000000   0.075502   0.000000   0.000000
   16  S  1 ZZ    0.061007   0.000000   0.007166   0.000000   0.000000
   17  S  1 XY    0.000000   0.000000   0.000000   0.000000   0.000000
   18  S  1 XZ    0.000000   0.000000   0.000000  -0.132479  -0.158710
   19  S  1 YZ    0.000000  -0.026759   0.000000   0.000000   0.000000
   20  O  2  S   -0.001627   0.000000   0.024020  -0.043907  -0.017526
   21  O  2  S    0.007243   0.000000  -0.048391   0.079536  -0.026787
   22  O  2  S   -0.023874   0.000000  -0.159421   0.348339   0.501800
   23  O  2  X   -0.114299   0.000000  -0.399581   0.236662  -0.240057
   24  O  2  Y    0.000000  -0.401191   0.000000   0.000000   0.000000
   25  O  2  Z    0.453981   0.000000  -0.078535  -0.262442  -0.001591
   26  O  2  X   -0.088102   0.000000  -0.322582   0.254300   0.195343
   27  O  2  Y    0.000000  -0.295744   0.000000   0.000000   0.000000
   28  O  2  Z    0.325900   0.000000  -0.054639  -0.228842  -0.129913
   29  O  2 XX    0.000674   0.000000   0.001339   0.003257   0.038950
   30  O  2 YY    0.003814   0.000000   0.001161   0.001459  -0.023227
   31  O  2 ZZ   -0.004489   0.000000  -0.002500  -0.004716  -0.015723
   32  O  2 XY    0.000000  -0.001012   0.000000   0.000000   0.000000
   33  O  2 XZ    0.010500   0.000000   0.004010   0.004690  -0.027805
   34  O  2 YZ    0.000000   0.000418   0.000000   0.000000   0.000000
   35  O  3  S   -0.001627   0.000000   0.024020   0.043907   0.017526
   36  O  3  S    0.007243   0.000000  -0.048391  -0.079536   0.026787
   37  O  3  S   -0.023874   0.000000  -0.159421  -0.348339  -0.501800
   38  O  3  X    0.114299   0.000000   0.399581   0.236662  -0.240057
   39  O  3  Y    0.000000  -0.401191   0.000000   0.000000   0.000000
   40  O  3  Z    0.453981   0.000000  -0.078535   0.262442   0.001591
   41  O  3  X    0.088102   0.000000   0.322582   0.254300   0.195343
   42  O  3  Y    0.000000  -0.295744   0.000000   0.000000   0.000000
   43  O  3  Z    0.325900   0.000000  -0.054639   0.228842   0.129913
   44  O  3 XX    0.000674   0.000000   0.001339  -0.003257  -0.038950
   45  O  3 YY    0.003814   0.000000   0.001161  -0.001459   0.023227
   46  O  3 ZZ   -0.004489   0.000000  -0.002500   0.004716   0.015723
   47  O  3 XY    0.000000   0.001012   0.000000   0.000000   0.000000
   48  O  3 XZ   -0.010500   0.000000  -0.004010   0.004690  -0.027805
   49  O  3 YZ    0.000000   0.000418   0.000000   0.000000   0.000000

                     21         22         23         24         25
                    0.3627     0.3666     0.3916     0.4653     0.4902
                     A1         B2         A1         A2         A1  
    1  S  1  S   -0.006838   0.000000  -0.107274   0.000000   0.008584
    2  S  1  S   -0.067256   0.000000  -0.380667   0.000000   0.031701
    3  S  1  S   -0.159154   0.000000  -1.648869   0.000000   0.133699
    4  S  1  S    0.383903   0.000000   1.944694   0.000000  -0.164753
    5  S  1  X    0.000000   0.000000   0.000000   0.000000   0.000000
    6  S  1  Y    0.000000   0.294720   0.000000   0.000000   0.000000
    7  S  1  Z    0.283820   0.000000  -0.042666   0.000000   0.044202
    8  S  1  X    0.000000   0.000000   0.000000   0.000000   0.000000
    9  S  1  Y    0.000000  -1.139797   0.000000   0.000000   0.000000
   10  S  1  Z   -1.100402   0.000000   0.158067   0.000000  -0.163382
   11  S  1  X    0.000000   0.000000   0.000000   0.000000   0.000000
   12  S  1  Y    0.000000   1.225125   0.000000   0.000000   0.000000
   13  S  1  Z    1.302475   0.000000  -0.039383   0.000000   0.094333
   14  S  1 XX   -0.017928   0.000000  -0.346993   0.000000  -0.213139
   15  S  1 YY    0.152976   0.000000   0.215566   0.000000  -0.673543
   16  S  1 ZZ   -0.135048   0.000000   0.131427   0.000000   0.886682
   17  S  1 XY    0.000000   0.000000   0.000000   0.858890   0.000000
   18  S  1 XZ    0.000000   0.000000   0.000000   0.000000   0.000000
   19  S  1 YZ    0.000000  -0.139690   0.000000   0.000000   0.000000
   20  O  2  S    0.010748   0.000000   0.012346   0.000000  -0.003135
   21  O  2  S    0.000492   0.000000  -0.027238   0.000000   0.014246
   22  O  2  S   -0.239659   0.000000  -0.193618   0.000000   0.005381
   23  O  2  X    0.053233   0.000000   0.046117   0.000000  -0.085905
   24  O  2  Y    0.000000  -0.090858   0.000000   0.325556   0.000000
   25  O  2  Z   -0.129072   0.000000  -0.117855   0.000000  -0.207287
   26  O  2  X   -0.163507   0.000000  -0.128089   0.000000   0.078303
   27  O  2  Y    0.000000  -0.086445   0.000000  -0.195739   0.000000
   28  O  2  Z   -0.019293   0.000000   0.105551   0.000000   0.113326
   29  O  2 XX   -0.024459   0.000000  -0.023437   0.000000   0.022601
   30  O  2 YY    0.015364   0.000000   0.024432   0.000000  -0.010433
   31  O  2 ZZ    0.009095   0.000000  -0.000995   0.000000  -0.012168
   32  O  2 XY    0.000000  -0.009677   0.000000  -0.046105   0.000000
   33  O  2 XZ    0.012275   0.000000   0.040198   0.000000   0.025817
   34  O  2 YZ    0.000000   0.002607   0.000000   0.027452   0.000000
   35  O  3  S    0.010748   0.000000   0.012346   0.000000  -0.003135
   36  O  3  S    0.000492   0.000000  -0.027238   0.000000   0.014246
   37  O  3  S   -0.239659   0.000000  -0.193618   0.000000   0.005381
   38  O  3  X   -0.053233   0.000000  -0.046117   0.000000   0.085905
   39  O  3  Y    0.000000  -0.090858   0.000000  -0.325556   0.000000
   40  O  3  Z   -0.129072   0.000000  -0.117855   0.000000  -0.207287
   41  O  3  X    0.163507   0.000000   0.128089   0.000000  -0.078303
   42  O  3  Y    0.000000  -0.086445   0.000000   0.195739   0.000000
   43  O  3  Z   -0.019293   0.000000   0.105551   0.000000   0.113326
   44  O  3 XX   -0.024459   0.000000  -0.023437   0.000000   0.022601
   45  O  3 YY    0.015364   0.000000   0.024432   0.000000  -0.010433
   46  O  3 ZZ    0.009095   0.000000  -0.000995   0.000000  -0.012168
   47  O  3 XY    0.000000   0.009677   0.000000  -0.046105   0.000000
   48  O  3 XZ   -0.012275   0.000000  -0.040198   0.000000  -0.025817
   49  O  3 YZ    0.000000   0.002607   0.000000  -0.027452   0.000000

                     26         27         28         29         30
                    0.4923     0.6195     0.6642     0.7952     0.7964
                     B2         B1         A1         B1         A2  
    1  S  1  S    0.000000   0.000000  -0.044424   0.000000   0.000000
    2  S  1  S    0.000000   0.000000  -0.242490   0.000000   0.000000
    3  S  1  S    0.000000   0.000000  -0.791286   0.000000   0.000000
    4  S  1  S    0.000000   0.000000   1.375162   0.000000   0.000000
    5  S  1  X    0.000000   0.020392   0.000000  -0.035352   0.000000
    6  S  1  Y    0.038613   0.000000   0.000000   0.000000   0.000000
    7  S  1  Z    0.000000   0.000000  -0.004412   0.000000   0.000000
    8  S  1  X    0.000000  -0.120164   0.000000   0.190215   0.000000
    9  S  1  Y   -0.143608   0.000000   0.000000   0.000000   0.000000
   10  S  1  Z    0.000000   0.000000  -0.005318   0.000000   0.000000
   11  S  1  X    0.000000   0.823410   0.000000  -0.206546   0.000000
   12  S  1  Y    0.094545   0.000000   0.000000   0.000000   0.000000
   13  S  1  Z    0.000000   0.000000   0.402987   0.000000   0.000000
   14  S  1 XX    0.000000   0.000000   0.823427   0.000000   0.000000
   15  S  1 YY    0.000000   0.000000  -0.685034   0.000000   0.000000
   16  S  1 ZZ    0.000000   0.000000  -0.138393   0.000000   0.000000
   17  S  1 XY    0.000000   0.000000   0.000000   0.000000   0.527356
   18  S  1 XZ    0.000000   0.901963   0.000000   0.369335   0.000000
   19  S  1 YZ    0.948046   0.000000   0.000000   0.000000   0.000000
   20  O  2  S    0.000000  -0.052051   0.056704  -0.007210   0.000000
   21  O  2  S    0.000000   0.252208  -0.311117   0.033226   0.000000
   22  O  2  S    0.000000   0.212272  -0.129886  -0.039952   0.000000
   23  O  2  X    0.000000   0.073537   0.089115  -0.355809   0.000000
   24  O  2  Y   -0.189672   0.000000   0.000000   0.000000  -0.560971
   25  O  2  Z    0.000000   0.205910   0.125274  -0.476941   0.000000
   26  O  2  X    0.000000   0.295692  -0.527718   0.527253   0.000000
   27  O  2  Y    0.116827   0.000000   0.000000   0.000000   0.730462
   28  O  2  Z    0.000000  -0.373433   0.055013   0.564242   0.000000
   29  O  2 XX    0.000000  -0.040180  -0.002403  -0.043052   0.000000
   30  O  2 YY    0.000000   0.005793  -0.016324   0.016669   0.000000
   31  O  2 ZZ    0.000000   0.034387   0.018727   0.026383   0.000000
   32  O  2 XY    0.029803   0.000000   0.000000   0.000000  -0.043496
   33  O  2 XZ    0.000000  -0.009749  -0.026203   0.006798   0.000000
   34  O  2 YZ    0.001071   0.000000   0.000000   0.000000   0.024729
   35  O  3  S    0.000000   0.052051   0.056704   0.007210   0.000000
   36  O  3  S    0.000000  -0.252208  -0.311117  -0.033226   0.000000
   37  O  3  S    0.000000  -0.212272  -0.129886   0.039952   0.000000
   38  O  3  X    0.000000   0.073537  -0.089115  -0.355809   0.000000
   39  O  3  Y   -0.189672   0.000000   0.000000   0.000000   0.560971
   40  O  3  Z    0.000000  -0.205910   0.125274   0.476941   0.000000
   41  O  3  X    0.000000   0.295692   0.527718   0.527253   0.000000
   42  O  3  Y    0.116827   0.000000   0.000000   0.000000  -0.730462
   43  O  3  Z    0.000000   0.373433   0.055013  -0.564242   0.000000
   44  O  3 XX    0.000000   0.040180  -0.002403   0.043052   0.000000
   45  O  3 YY    0.000000  -0.005793  -0.016324  -0.016669   0.000000
   46  O  3 ZZ    0.000000  -0.034387   0.018727  -0.026383   0.000000
   47  O  3 XY   -0.029803   0.000000   0.000000   0.000000  -0.043496
   48  O  3 XZ    0.000000  -0.009749   0.026203   0.006798   0.000000
   49  O  3 YZ    0.001071   0.000000   0.000000   0.000000  -0.024729

                     31         32         33         34         35
                    0.8121     0.8208     0.8302     0.8329     1.5567
                     A1         B2         B1         A1         A1  
    1  S  1  S   -0.032228   0.000000   0.000000  -0.005234  -0.025906
    2  S  1  S   -0.081407   0.000000   0.000000  -0.017060  -0.260443
    3  S  1  S   -0.470870   0.000000   0.000000  -0.079736  -0.603638
    4  S  1  S   -0.033174   0.000000   0.000000   0.062880   1.578839
    5  S  1  X    0.000000   0.000000  -0.101313   0.000000   0.000000
    6  S  1  Y    0.000000  -0.030677   0.000000   0.000000   0.000000
    7  S  1  Z    0.051337   0.000000   0.000000  -0.024386  -0.010083
    8  S  1  X    0.000000   0.000000   0.531476   0.000000   0.000000
    9  S  1  Y    0.000000   0.161884   0.000000   0.000000   0.000000
   10  S  1  Z   -0.271002   0.000000   0.000000   0.125697   0.035473
   11  S  1  X    0.000000   0.000000  -0.168245   0.000000   0.000000
   12  S  1  Y    0.000000  -0.545123   0.000000   0.000000   0.000000
   13  S  1  Z    0.139328   0.000000   0.000000  -0.453093   0.558161
   14  S  1 XX    0.095628   0.000000   0.000000   0.427427   0.362791
   15  S  1 YY   -0.111872   0.000000   0.000000  -0.011206  -0.280977
   16  S  1 ZZ    0.016244   0.000000   0.000000  -0.416221  -0.081814
   17  S  1 XY    0.000000   0.000000   0.000000   0.000000   0.000000
   18  S  1 XZ    0.000000   0.000000  -0.230958   0.000000   0.000000
   19  S  1 YZ    0.000000  -0.293515   0.000000   0.000000   0.000000
   20  O  2  S   -0.011728   0.000000  -0.009804   0.001495  -0.012116
   21  O  2  S    0.120878   0.000000   0.121469   0.029940   1.106705
   22  O  2  S   -0.093942   0.000000  -0.131708  -0.008173  -1.514892
   23  O  2  X   -0.519299   0.000000  -0.488827  -0.315373   0.130324
   24  O  2  Y    0.000000  -0.607131   0.000000   0.000000   0.000000
   25  O  2  Z    0.334983   0.000000   0.354577  -0.474036   0.009799
   26  O  2  X    0.677535   0.000000   0.628299   0.367738  -0.602240
   27  O  2  Y    0.000000   0.838318   0.000000   0.000000   0.000000
   28  O  2  Z   -0.433945   0.000000  -0.460728   0.703952   0.104027
   29  O  2 XX   -0.032168   0.000000  -0.013392  -0.017854   0.176662
   30  O  2 YY    0.016723   0.000000   0.021492  -0.010069  -0.116707
   31  O  2 ZZ    0.015446   0.000000  -0.008101   0.027923  -0.059955
   32  O  2 XY    0.000000  -0.030838   0.000000   0.000000   0.000000
   33  O  2 XZ    0.020878   0.000000   0.037616  -0.051524  -0.117514
   34  O  2 YZ    0.000000   0.007817   0.000000   0.000000   0.000000
   35  O  3  S   -0.011728   0.000000   0.009804   0.001495  -0.012116
   36  O  3  S    0.120878   0.000000  -0.121469   0.029940   1.106705
   37  O  3  S   -0.093942   0.000000   0.131708  -0.008173  -1.514892
   38  O  3  X    0.519299   0.000000  -0.488827   0.315373  -0.130324
   39  O  3  Y    0.000000  -0.607131   0.000000   0.000000   0.000000
   40  O  3  Z    0.334983   0.000000  -0.354577  -0.474036   0.009799
   41  O  3  X   -0.677535   0.000000   0.628299  -0.367738   0.602240
   42  O  3  Y    0.000000   0.838318   0.000000   0.000000   0.000000
   43  O  3  Z   -0.433945   0.000000   0.460728   0.703952   0.104027
   44  O  3 XX   -0.032168   0.000000   0.013392  -0.017854   0.176662
   45  O  3 YY    0.016723   0.000000  -0.021492  -0.010069  -0.116707
   46  O  3 ZZ    0.015446   0.000000   0.008101   0.027923  -0.059955
   47  O  3 XY    0.000000   0.030838   0.000000   0.000000   0.000000
   48  O  3 XZ   -0.020878   0.000000   0.037616   0.051524   0.117514
   49  O  3 YZ    0.000000   0.007817   0.000000   0.000000   0.000000

                     36         37         38         39         40
                    1.5795     2.0824     2.0828     2.0859     2.0873
                     B1         B1         A2         B2         A1  
    1  S  1  S    0.000000   0.000000   0.000000   0.000000  -0.000803
    2  S  1  S    0.000000   0.000000   0.000000   0.000000  -0.003095
    3  S  1  S    0.000000   0.000000   0.000000   0.000000  -0.012684
    4  S  1  S    0.000000   0.000000   0.000000   0.000000   0.016957
    5  S  1  X   -0.022605  -0.002804   0.000000   0.000000   0.000000
    6  S  1  Y    0.000000   0.000000   0.000000  -0.003933   0.000000
    7  S  1  Z    0.000000   0.000000   0.000000   0.000000   0.001668
    8  S  1  X    0.072081   0.004317   0.000000   0.000000   0.000000
    9  S  1  Y    0.000000   0.000000   0.000000   0.004384   0.000000
   10  S  1  Z    0.000000   0.000000   0.000000   0.000000  -0.005626
   11  S  1  X    1.164283   0.049454   0.000000   0.000000   0.000000
   12  S  1  Y    0.000000   0.000000   0.000000   0.036625   0.000000
   13  S  1  Z    0.000000   0.000000   0.000000   0.000000   0.005322
   14  S  1 XX    0.000000   0.000000   0.000000   0.000000   0.010757
   15  S  1 YY    0.000000   0.000000   0.000000   0.000000  -0.036001
   16  S  1 ZZ    0.000000   0.000000   0.000000   0.000000   0.025244
   17  S  1 XY    0.000000   0.000000   0.034337   0.000000   0.000000
   18  S  1 XZ    0.372178  -0.035408   0.000000   0.000000   0.000000
   19  S  1 YZ    0.000000   0.000000   0.000000  -0.004748   0.000000
   20  O  2  S    0.011239   0.000501   0.000000   0.000000   0.000801
   21  O  2  S   -1.165630  -0.026617   0.000000   0.000000   0.003763
   22  O  2  S    1.681758   0.041861   0.000000   0.000000  -0.011600
   23  O  2  X   -0.062845  -0.000296   0.000000   0.000000  -0.002602
   24  O  2  Y    0.000000   0.000000  -0.005545   0.009671   0.000000
   25  O  2  Z    0.099093   0.012128   0.000000   0.000000   0.001124
   26  O  2  X    0.430951   0.005266   0.000000   0.000000  -0.002899
   27  O  2  Y    0.000000   0.000000   0.008645  -0.016616   0.000000
   28  O  2  Z   -0.368699  -0.021543   0.000000   0.000000  -0.000829
   29  O  2 XX   -0.133252  -0.270331   0.000000   0.000000  -0.079471
   30  O  2 YY    0.092101   0.572579   0.000000   0.000000   0.602673
   31  O  2 ZZ    0.041150  -0.302248   0.000000   0.000000  -0.523202
   32  O  2 XY    0.000000   0.000000   0.430234   0.109209   0.000000
   33  O  2 XZ    0.136277  -0.414848   0.000000   0.000000  -0.266519
   34  O  2 YZ    0.000000   0.000000   0.561270   0.698916   0.000000
   35  O  3  S   -0.011239  -0.000501   0.000000   0.000000   0.000801
   36  O  3  S    1.165630   0.026617   0.000000   0.000000   0.003763
   37  O  3  S   -1.681758  -0.041861   0.000000   0.000000  -0.011600
   38  O  3  X   -0.062845  -0.000296   0.000000   0.000000   0.002602
   39  O  3  Y    0.000000   0.000000   0.005545   0.009671   0.000000
   40  O  3  Z   -0.099093  -0.012128   0.000000   0.000000   0.001124
   41  O  3  X    0.430951   0.005266   0.000000   0.000000   0.002899
   42  O  3  Y    0.000000   0.000000  -0.008645  -0.016616   0.000000
   43  O  3  Z    0.368699   0.021543   0.000000   0.000000  -0.000829
   44  O  3 XX    0.133252   0.270331   0.000000   0.000000  -0.079471
   45  O  3 YY   -0.092101  -0.572579   0.000000   0.000000   0.602673
   46  O  3 ZZ   -0.041150   0.302248   0.000000   0.000000  -0.523202
   47  O  3 XY    0.000000   0.000000   0.430234  -0.109209   0.000000
   48  O  3 XZ    0.136277  -0.414848   0.000000   0.000000   0.266519
   49  O  3 YZ    0.000000   0.000000  -0.561270   0.698916   0.000000

                     41         42         43         44         45
                    2.0996     2.0996     2.1321     2.1468     2.4162
                     B2         B1         A2         A1         B1  
    1  S  1  S    0.000000   0.000000   0.000000   0.000562   0.000000
    2  S  1  S    0.000000   0.000000   0.000000   0.042421   0.000000
    3  S  1  S    0.000000   0.000000   0.000000   0.058582   0.000000
    4  S  1  S    0.000000   0.000000   0.000000  -0.257369   0.000000
    5  S  1  X    0.000000  -0.025775   0.000000   0.000000  -0.129760
    6  S  1  Y    0.012587   0.000000   0.000000   0.000000   0.000000
    7  S  1  Z    0.000000   0.000000   0.000000   0.021558   0.000000
    8  S  1  X    0.000000   0.082608   0.000000   0.000000   0.483173
    9  S  1  Y   -0.009274   0.000000   0.000000   0.000000   0.000000
   10  S  1  Z    0.000000   0.000000   0.000000  -0.043695   0.000000
   11  S  1  X    0.000000   0.133577   0.000000   0.000000   0.378405
   12  S  1  Y   -0.145179   0.000000   0.000000   0.000000   0.000000
   13  S  1  Z    0.000000   0.000000   0.000000  -0.223623   0.000000
   14  S  1 XX    0.000000   0.000000   0.000000   0.082451   0.000000
   15  S  1 YY    0.000000   0.000000   0.000000   0.077460   0.000000
   16  S  1 ZZ    0.000000   0.000000   0.000000  -0.159911   0.000000
   17  S  1 XY    0.000000   0.000000   0.242243   0.000000   0.000000
   18  S  1 XZ    0.000000  -0.090521   0.000000   0.000000   0.454818
   19  S  1 YZ   -0.126370   0.000000   0.000000   0.000000   0.000000
   20  O  2  S    0.000000  -0.000014   0.000000   0.000213  -0.008471
   21  O  2  S    0.000000  -0.101967   0.000000  -0.150430  -0.436166
   22  O  2  S    0.000000   0.159093   0.000000   0.233002   0.703725
   23  O  2  X    0.000000  -0.017112   0.000000  -0.057596  -0.079409
   24  O  2  Y   -0.041688   0.000000  -0.031471   0.000000   0.000000
   25  O  2  Z    0.000000   0.038165   0.000000  -0.031530   0.040234
   26  O  2  X    0.000000   0.052332   0.000000   0.158041   0.381214
   27  O  2  Y    0.080848   0.000000   0.057226   0.000000   0.000000
   28  O  2  Z    0.000000  -0.073574   0.000000   0.053072  -0.189365
   29  O  2 XX    0.000000  -0.325574   0.000000   0.542799   0.581379
   30  O  2 YY    0.000000  -0.264294   0.000000  -0.072717  -0.326122
   31  O  2 ZZ    0.000000   0.589869   0.000000  -0.470082  -0.255258
   32  O  2 XY    0.702426   0.000000   0.563815   0.000000   0.000000
   33  O  2 XZ    0.000000  -0.389577   0.000000   0.395939  -0.422319
   34  O  2 YZ   -0.112161   0.000000  -0.430940   0.000000   0.000000
   35  O  3  S    0.000000   0.000014   0.000000   0.000213   0.008471
   36  O  3  S    0.000000   0.101967   0.000000  -0.150430   0.436166
   37  O  3  S    0.000000  -0.159093   0.000000   0.233002  -0.703725
   38  O  3  X    0.000000  -0.017112   0.000000   0.057596  -0.079409
   39  O  3  Y   -0.041688   0.000000   0.031471   0.000000   0.000000
   40  O  3  Z    0.000000  -0.038165   0.000000  -0.031530  -0.040234
   41  O  3  X    0.000000   0.052332   0.000000  -0.158041   0.381214
   42  O  3  Y    0.080848   0.000000  -0.057226   0.000000   0.000000
   43  O  3  Z    0.000000   0.073574   0.000000   0.053072   0.189365
   44  O  3 XX    0.000000   0.325574   0.000000   0.542799  -0.581379
   45  O  3 YY    0.000000   0.264294   0.000000  -0.072717   0.326122
   46  O  3 ZZ    0.000000  -0.589869   0.000000  -0.470082   0.255258
   47  O  3 XY   -0.702426   0.000000   0.563815   0.000000   0.000000
   48  O  3 XZ    0.000000  -0.389577   0.000000  -0.395939  -0.422319
   49  O  3 YZ   -0.112161   0.000000   0.430940   0.000000   0.000000

                     46
                    2.4314
                     A1  
    1  S  1  S    0.006909
    2  S  1  S   -0.153299
    3  S  1  S   -0.114622
    4  S  1  S    0.928143
    5  S  1  X    0.000000
    6  S  1  Y    0.000000
    7  S  1  Z   -0.061935
    8  S  1  X    0.000000
    9  S  1  Y    0.000000
   10  S  1  Z    0.236310
   11  S  1  X    0.000000
   12  S  1  Y    0.000000
   13  S  1  Z    0.200305
   14  S  1 XX    0.537632
   15  S  1 YY   -0.353646
   16  S  1 ZZ   -0.183986
   17  S  1 XY    0.000000
   18  S  1 XZ    0.000000
   19  S  1 YZ    0.000000
   20  O  2  S    0.009706
   21  O  2  S    0.483409
   22  O  2  S   -0.776732
   23  O  2  X    0.092867
   24  O  2  Y    0.000000
   25  O  2  Z   -0.040623
   26  O  2  X   -0.456099
   27  O  2  Y    0.000000
   28  O  2  Z    0.200526
   29  O  2 XX   -0.445484
   30  O  2 YY    0.364676
   31  O  2 ZZ    0.080808
   32  O  2 XY    0.000000
   33  O  2 XZ    0.538233
   34  O  2 YZ    0.000000
   35  O  3  S    0.009706
   36  O  3  S    0.483409
   37  O  3  S   -0.776732
   38  O  3  X   -0.092867
   39  O  3  Y    0.000000
   40  O  3  Z   -0.040623
   41  O  3  X    0.456099
   42  O  3  Y    0.000000
   43  O  3  Z    0.200526
   44  O  3 XX   -0.445484
   45  O  3 YY    0.364676
   46  O  3 ZZ    0.080808
   47  O  3 XY    0.000000
   48  O  3 XZ   -0.538233
   49  O  3 YZ    0.000000
 ...... END OF RHF CALCULATION ......
 STEP CPU TIME =     4.20 TOTAL CPU TIME =        4.4 (    0.1 MIN)
 TOTAL WALL CLOCK TIME=        4.4 SECONDS, CPU UTILIZATION IS  99.77%

     ---------------------------------------------------------------------
     PROPERTIES FOR THE PBE      DFT FUNCTIONAL (RHF  TYPE) DENSITY MATRIX
     ---------------------------------------------------------------------

          -----------------
          ENERGY COMPONENTS
          -----------------

         WAVEFUNCTION NORMALIZATION =       1.0000000000

                ONE ELECTRON ENERGY =    -925.8186624420
                TWO ELECTRON ENERGY =     292.0168993412
           NUCLEAR REPULSION ENERGY =      85.6408975280
                                      ------------------
                       TOTAL ENERGY =    -548.1608655728

 ELECTRON-ELECTRON POTENTIAL ENERGY =     292.0168993412
  NUCLEUS-ELECTRON POTENTIAL ENERGY =   -1472.4989890915
   NUCLEUS-NUCLEUS POTENTIAL ENERGY =      85.6408975280
                                      ------------------
             TOTAL POTENTIAL ENERGY =   -1094.8411922223
               TOTAL KINETIC ENERGY =     546.6803266494
                 VIRIAL RATIO (V/T) =       2.0027082352

          ---------------------------------------
          MULLIKEN AND LOWDIN POPULATION ANALYSES
          ---------------------------------------

     ATOMIC MULLIKEN POPULATION IN EACH MOLECULAR ORBITAL

                      1          2          3          4          5

                  2.000000   2.000000   2.000000   2.000000   2.000000

    1             2.000000   0.000818   0.000565   2.000096   1.999983
    2             0.000000   0.999591   0.999718  -0.000048   0.000008
    3             0.000000   0.999591   0.999718  -0.000048   0.000008

                      6          7          8          9         10

                  2.000000   2.000000   2.000000   2.000000   2.000000

    1             2.000003   1.999980   0.524758   0.160399   1.297557
    2            -0.000001   0.000010   0.737621   0.919801   0.351222
    3            -0.000001   0.000010   0.737621   0.919801   0.351222

                     11         12         13         14         15

                  2.000000   2.000000   2.000000   2.000000   2.000000

    1             0.611438   1.149555   1.194994   0.033189   0.068675
    2             0.694281   0.425223   0.402503   0.983405   0.965662
    3             0.694281   0.425223   0.402503   0.983405   0.965662

                     16

                  2.000000

    1             0.196882
    2             0.901559
    3             0.901559

               ----- POPULATIONS IN EACH AO -----
                             MULLIKEN      LOWDIN
              1  S  1  S      2.00021     1.99605
              2  S  1  S      2.01055     1.97481
              3  S  1  S      1.01866     0.64954
              4  S  1  S      0.88824     0.56009
              5  S  1  X      1.99615     1.95225
              6  S  1  Y      1.99630     1.95623
              7  S  1  Z      1.99662     1.95848
              8  S  1  X      0.62504     0.57619
              9  S  1  Y      0.68572     0.66549
             10  S  1  Z      0.74783     0.72280
             11  S  1  X      0.17169     0.31872
             12  S  1  Y      0.50975     0.55514
             13  S  1  Z      0.42465     0.50620
             14  S  1 XX      0.02568     0.25104
             15  S  1 YY      0.05693     0.26604
             16  S  1 ZZ      0.03319     0.26098
             17  S  1 XY      0.04843     0.03832
             18  S  1 XZ      0.00322     0.06192
             19  S  1 YZ      0.00000     0.00306
             20  O  2  S      1.99804     1.98135
             21  O  2  S      0.85836     0.67369
             22  O  2  S      1.11354     0.61194
             23  O  2  X      0.76118     0.72211
             24  O  2  Y      0.82838     0.79789
             25  O  2  Z      1.08301     1.05171
             26  O  2  X      0.48940     0.56565
             27  O  2  Y      0.55531     0.59029
             28  O  2  Z      0.68407     0.72686
             29  O  2 XX      0.00125     0.21370
             30  O  2 YY      0.00296     0.21388
             31  O  2 ZZ      0.00181     0.20764
             32  O  2 XY      0.00282     0.00222
             33  O  2 XZ      0.00040     0.00392
             34  O  2 YZ      0.00000     0.00049
             35  O  3  S      1.99804     1.98135
             36  O  3  S      0.85836     0.67369
             37  O  3  S      1.11354     0.61194
             38  O  3  X      0.76118     0.72211
             39  O  3  Y      0.82838     0.79789
             40  O  3  Z      1.08301     1.05171
             41  O  3  X      0.48940     0.56565
             42  O  3  Y      0.55531     0.59029
             43  O  3  Z      0.68407     0.72686
             44  O  3 XX      0.00125     0.21370
             45  O  3 YY      0.00296     0.21388
             46  O  3 ZZ      0.00181     0.20764
             47  O  3 XY      0.00282     0.00222
             48  O  3 XZ      0.00040     0.00392
             49  O  3 YZ      0.00000     0.00049

          ----- MULLIKEN ATOMIC OVERLAP POPULATIONS -----
          (OFF-DIAGONAL ELEMENTS NEED TO BE MULTIPLIED BY 2)

             1           2           3

    1   14.8066645
    2    0.2161136   8.1716118
    3    0.2161136  -0.0071712   8.1716118

          TOTAL MULLIKEN AND LOWDIN ATOMIC POPULATIONS
       ATOM         MULL.POP.    CHARGE          LOW.POP.     CHARGE
    1 S            15.238892    0.761108        15.273367    0.726633
    2 O             8.380554   -0.380554         8.363316   -0.363316
    3 O             8.380554   -0.380554         8.363316   -0.363316

          MULLIKEN SPHERICAL HARMONIC POPULATIONS
       ATOM           S       P       D      F      G      H      I    TOTAL
    1 S             5.92    9.15    0.17   0.00   0.00   0.00   0.00   15.24
    2 O             3.97    4.40    0.01   0.00   0.00   0.00   0.00    8.38
    3 O             3.97    4.40    0.01   0.00   0.00   0.00   0.00    8.38

          -------------------------------
          BOND ORDER AND VALENCE ANALYSIS     BOND ORDER THRESHOLD=0.050
          -------------------------------

                   BOND                       BOND                       BOND
  ATOM PAIR DIST  ORDER      ATOM PAIR DIST  ORDER      ATOM PAIR DIST  ORDER
    1   2  1.800  1.585        1   3  1.800  1.585        2   3  3.263  0.549

                       TOTAL       BONDED        FREE
      ATOM            VALENCE     VALENCE     VALENCE
    1 S                 3.171       3.171       0.000
    2 O                 2.135       2.135       0.000
    3 O                 2.135       2.135       0.000

          ---------------------
          ELECTROSTATIC MOMENTS
          ---------------------

 POINT   1           X           Y           Z (BOHR)    CHARGE
                 0.000000    0.000000    0.000000        0.00 (A.U.)
         DX          DY          DZ         /D/  (DEBYE)
     0.000000    0.000000   -1.790628    1.790628
 ...... END OF PROPERTY EVALUATION ......
 STEP CPU TIME =     0.01 TOTAL CPU TIME =        4.4 (    0.1 MIN)
 TOTAL WALL CLOCK TIME=        4.4 SECONDS, CPU UTILIZATION IS 100.00%
               580000  WORDS OF DYNAMIC MEMORY USED
 EXECUTION OF GAMESS TERMINATED NORMALLY Thu Feb 26 00:20:45 2015
 DDI: 263624 bytes (0.3 MB / 0 MWords) used by master data server.

 ----------------------------------------
 CPU timing information for all processes
 ========================================
 0: 4.359 + 0.30 = 4.390
 ----------------------------------------
 ddikick.x: exited gracefully.
----- accounting info -----
Files used on the master node dftfe.crc.nd.edu were:
-rw-r--r-- 1 pmehta1 campus   37475 Feb 26 00:20 /tmp/gamess.dat
-rw-r--r-- 1 pmehta1 campus     142 Feb 26 00:20 /tmp/gamess.F05
-rw-r--r-- 1 pmehta1 campus 1980264 Feb 26 00:20 /tmp/gamess.F08
-rw-r--r-- 1 pmehta1 campus 1220440 Feb 26 00:20 /tmp/gamess.F10
Thu Feb 26 00:20:48 EST 2015
0.252u 0.175s 0:07.82 5.3%	0+0k 0+104io 0pf+0w
