----- GAMESS execution script 'rungms' -----
This job is running on host dftfe.crc.nd.edu
under operating system Linux at Thu Feb 26 00:22:22 EST 2015
Available scratch disk space (Kbyte units) at beginning of the job is
Filesystem     1K-blocks     Used Available Use% Mounted on
/dev/sda2      147771864 22818236 117447196  17% /
GAMESS temporary binary files will be written to /tmp
GAMESS supplementary output files will be written to /tmp
Copying input file gamess.inp to your run's scratch directory...

 Distributed Data Interface kickoff program.
 Initiating 1 compute processes on 1 nodes to run the following command:
 /opt/crc/gamess/2012R1/gamess/gamess.00.x gamess 

          ******************************************************
          *         GAMESS VERSION =  1 MAY 2012 (R1)          *
          *             FROM IOWA STATE UNIVERSITY             *
          * M.W.SCHMIDT, K.K.BALDRIDGE, J.A.BOATZ, S.T.ELBERT, *
          *   M.S.GORDON, J.H.JENSEN, S.KOSEKI, N.MATSUNAGA,   *
          *          K.A.NGUYEN, S.J.SU, T.L.WINDUS,           *
          *       TOGETHER WITH M.DUPUIS, J.A.MONTGOMERY       *
          *         J.COMPUT.CHEM.  14, 1347-1363(1993)        *
          **************** 64 BIT LINUX VERSION ****************

  SINCE 1993, STUDENTS AND POSTDOCS WORKING AT IOWA STATE UNIVERSITY
  AND ALSO IN THEIR VARIOUS JOBS AFTER LEAVING ISU HAVE MADE IMPORTANT
  CONTRIBUTIONS TO THE CODE:
     IVANA ADAMOVIC, CHRISTINE AIKENS, YURI ALEXEEV, POOJA ARORA,
     ANDREY ASADCHEV, ROB BELL, PRADIPTA BANDYOPADHYAY, JONATHAN BENTZ,
     BRETT BODE, GALINA CHABAN, WEI CHEN, CHEOL HO CHOI, PAUL DAY,
     ALBERT DEFUSCO, TIM DUDLEY, DMITRI FEDOROV, GRAHAM FLETCHER,
     MARK FREITAG, KURT GLAESEMANN, DAN KEMP, GRANT MERRILL,
     NORIYUKI MINEZAWA, JONATHAN MULLIN, TAKESHI NAGATA,
     SEAN NEDD, HEATHER NETZLOFF, BOSILJKA NJEGIC, RYAN OLSON, MIKE PAK,
     JIM SHOEMAKER, LYUDMILA SLIPCHENKO, SAROM SOK, JIE SONG,
     TETSUYA TAKETSUGU, SIMON WEBB, SOOHAENG YOO, FEDERICO ZAHARIEV

  ADDITIONAL CODE HAS BEEN PROVIDED BY COLLABORATORS IN OTHER GROUPS:
     IOWA STATE UNIVERSITY:
          JOE IVANIC, LAIMUTIS BYTAUTAS, KLAUS RUEDENBERG
     UNIVERSITY OF TOKYO: KIMIHIKO HIRAO, TAKAHITO NAKAJIMA,
          TAKAO TSUNEDA, MUNEAKI KAMIYA, SUSUMU YANAGISAWA,
          KIYOSHI YAGI, MAHITO CHIBA, SEIKEN TOKURA, NAOAKI KAWAKAMI
     UNIVERSITY OF AARHUS: FRANK JENSEN
     UNIVERSITY OF IOWA: VISVALDAS KAIRYS, HUI LI
     NATIONAL INST. OF STANDARDS AND TECHNOLOGY: WALT STEVENS, DAVID GARMER
     UNIVERSITY OF PISA: BENEDETTA MENNUCCI, JACOPO TOMASI
     UNIVERSITY OF MEMPHIS: HENRY KURTZ, PRAKASHAN KORAMBATH
     UNIVERSITY OF ALBERTA: TOBY ZENG, MARIUSZ KLOBUKOWSKI
     UNIVERSITY OF NEW ENGLAND: MARK SPACKMAN
     MIE UNIVERSITY: HIROAKI UMEDA
     MICHIGAN STATE UNIVERSITY:
          KAROL KOWALSKI, MARTA WLOCH, JEFFREY GOUR, JESSE LUTZ, PIOTR PIECUCH
     UNIVERSITY OF SILESIA: MONIKA MUSIAL, STANISLAW KUCHARSKI
     FACULTES UNIVERSITAIRES NOTRE-DAME DE LA PAIX:
          OLIVIER QUINET, BENOIT CHAMPAGNE
     UNIVERSITY OF CALIFORNIA - SANTA BARBARA: BERNARD KIRTMAN
     INSTITUTE FOR MOLECULAR SCIENCE:
          KAZUYA ISHIMURA, MICHIO KATOUDA, AND SHIGERU NAGASE
     UNIVERSITY OF NOTRE DAME: DAN CHIPMAN
     KYUSHU UNIVERSITY:
          HARUYUKI NAKANO,
          FENG LONG GU, JACEK KORCHOWIEC, MARCIN MAKOWSKI, AND YURIKO AOKI,
          HIROTOSHI MORI AND EISAKU MIYOSHI
     PENNSYLVANIA STATE UNIVERSITY:
          TZVETELIN IORDANOV, CHET SWALINA, JONATHAN SKONE,
          SHARON HAMMES-SCHIFFER
     WASEDA UNIVERSITY:
          MASATO KOBAYASHI, TOMOKO AKAMA, TSUGUKI TOUMA,
          TAKESHI YOSHIKAWA, YASUHIRO IKABATA, HIROMI NAKAI
     UNIVERSITY OF NEBRASKA:
          PEIFENG SU, DEJUN SI, NANDUN THELLAMUREGE, YALI WANG, HUI LI
     UNIVERSITY OF ZURICH:
          ROBERTO PEVERATI, KIM BALDRIDGE
     N. COPERNICUS UNIVERSITY AND JACKSON STATE UNIVERSITY:
          MARIA BARYSZ

 EXECUTION OF GAMESS BEGUN Thu Feb 26 00:22:23 2015

            ECHO OF THE FIRST FEW INPUT CARDS -
 INPUT CARD> $BASIS GBASIS=PC1 $END                                                         
 INPUT CARD> $CONTRL COORD=ZMT ISPHER=1 RUNTYP=ENERGY DFTTYP=PBE $END                       
 INPUT CARD>                                                                                
 INPUT CARD> $DATA                                                                          
 INPUT CARD>Title                                                                           
 INPUT CARD>Cnv 2                                                                           
 INPUT CARD>                                                                                
 INPUT CARD>S                                                                               
 INPUT CARD>O 1 1.90                                                                        
 INPUT CARD>O 1 1.90 2 170.0                                                                
 INPUT CARD> $END                                                                           
    1000000 WORDS OF MEMORY AVAILABLE

     BASIS OPTIONS
     -------------
     GBASIS=PC1          IGAUSS=       0      POLAR=NONE    
     NDFUNC=       0     NFFUNC=       0     DIFFSP=       F
     NPFUNC=       0      DIFFS=       F     BASNAM=        


     RUN TITLE
     ---------
 Title                                                                           

 THE POINT GROUP OF THE MOLECULE IS CNV     
 THE ORDER OF THE PRINCIPAL AXIS IS     2

 YOUR FULLY SUBSTITUTED Z-MATRIX IS
 S   
 O      1   1.9000000
 O      1   1.9000000  2  170.0000

 THE MOMENTS OF INERTIA ARE (AMU-ANGSTROM**2)
 IXX=     0.438   IYY=   114.606   IZZ=   115.045

 ATOM      ATOMIC                      COORDINATES (BOHR)
           CHARGE         X                   Y                   Z
 S          16.0     0.0000000000        0.0000000000       -0.1565088690
 O           8.0    -3.5768165186        0.0000000000        0.1564220279
 O           8.0     3.5768165186        0.0000000000        0.1564220279

          INTERNUCLEAR DISTANCES (ANGS.)
          ------------------------------

                1 S          2 O          3 O     

   1 S       0.0000000    1.9000000 *  1.9000000 *
   2 O       1.9000000 *  0.0000000    3.7855399  
   3 O       1.9000000 *  3.7855399    0.0000000  

  * ... LESS THAN  3.000


     ATOMIC BASIS SET
     ----------------
 THE CONTRACTED PRIMITIVE FUNCTIONS HAVE BEEN UNNORMALIZED
 THE CONTRACTED BASIS FUNCTIONS ARE NOW NORMALIZED TO UNITY

  SHELL TYPE  PRIMITIVE        EXPONENT          CONTRACTION COEFFICIENT(S)

 S         

      1   S       1         55510.0000000    0.000587229760
      1   S       2          8326.7000000    0.004532413947
      1   S       3          1895.6000000    0.023265261648
      1   S       4           536.7700000    0.089696133027
      1   S       5           174.6700000    0.254098332277
      1   S       6            62.5780000    0.438665087637
      1   S       7            23.5730000    0.314547135094
      1   S       8             5.8908000    0.032727897102

      2   S       9          8326.7000000   -0.000019755715
      2   S      10          1895.6000000   -0.000043822381
      2   S      11           536.7700000   -0.001730264906
      2   S      12           174.6700000   -0.009381263460
      2   S      13            62.5780000   -0.064050766303
      2   S      14            23.5730000   -0.082478179196
      2   S      15             5.8908000    0.478342956889
      2   S      16             2.1852000    0.626896670208

      3   S      17          1895.6000000    0.000016227260
      3   S      18           536.7700000    0.000191135619
      3   S      19           174.6700000    0.001952069674
      3   S      20            62.5780000    0.010578701087
      3   S      21            23.5730000    0.022164934551
      3   S      22             5.8908000   -0.184968323118
      3   S      23             2.1852000   -0.480920750976
      3   S      24             0.4528200    1.243822243872

      4   S      25             0.1620200    1.000000000000

      5   P      26           395.4500000    0.004642761329
      5   P      27            92.8340000    0.036023396489
      5   P      28            29.2660000    0.149058869978
      5   P      29            10.5950000    0.360033266263
      5   P      30             4.0272000    0.455756476221
      5   P      31             1.5484000    0.206167664178

      6   P      32            92.8340000    0.000169901442
      6   P      33            29.2660000   -0.002541839934
      6   P      34            10.5950000   -0.007867614595
      6   P      35             4.0272000   -0.037231009184
      6   P      36             1.5484000    0.161417246830
      6   P      37             0.4613400    0.902230419976

      7   P      38             0.1313100    1.000000000000

      8   D      39             0.5500000    1.000000000000

 O         

     15   S      40          2306.7000000    0.005424388755
     15   S      41           347.1500000    0.040474749465
     15   S      42            78.8900000    0.180219634554
     15   S      43            21.8760000    0.462370311787
     15   S      44             6.6646000    0.454888396263

     16   S      45           347.1500000   -0.000655003786
     16   S      46            78.8900000   -0.005362052952
     16   S      47            21.8760000   -0.074902158894
     16   S      48             6.6646000   -0.181442579655
     16   S      49             1.0669000    1.102006874042

     17   S      50             0.3070000    1.000000000000

     18   P      51            17.0220000    0.068979967443
     18   P      52             3.6838000    0.351985516325
     18   P      53             0.9923400    0.724036547822

     19   P      54             0.2448700    1.000000000000

     20   D      55             1.0000000    1.000000000000

 TOTAL NUMBER OF BASIS SET SHELLS             =   20
 NUMBER OF CARTESIAN GAUSSIAN BASIS FUNCTIONS =   49
 NOTE: THIS RUN WILL RESTRICT THE MO VARIATION SPACE TO SPHERICAL HARMONICS.
 THE NUMBER OF ORBITALS KEPT IN THE VARIATIONAL SPACE WILL BE PRINTED LATER.
 NUMBER OF ELECTRONS                          =   32
 CHARGE OF MOLECULE                           =    0
 SPIN MULTIPLICITY                            =    1
 NUMBER OF OCCUPIED ORBITALS (ALPHA)          =   16
 NUMBER OF OCCUPIED ORBITALS (BETA )          =   16
 TOTAL NUMBER OF ATOMS                        =    3
 THE NUCLEAR REPULSION ENERGY IS       80.2461745564

     LEBEDEV GRID-BASED DFT OPTIONS
     ------------------------------
     DFTTYP=PBE     
     NRAD  =      96     NLEB  =     302
     NRAD0 =      24     NLEB0 =     110
     SWOFF =    5.00E-03 (PURE SCF -> DFT)
     SWITCH=    3.00E-04 (COARSE -> TIGHT GRID)
     THRESH=    0.00E+00 GTHRE=    1.00E+00

 GRIMME'S EMPIRICAL DISPERSION CORRECTION= F

     $CONTRL OPTIONS
     ---------------
 SCFTYP=RHF          RUNTYP=ENERGY       EXETYP=RUN     
 MPLEVL=       0     CITYP =NONE         CCTYP =NONE         VBTYP =NONE    
 DFTTYP=PBE          TDDFT =NONE    
 MULT  =       1     ICHARG=       0     NZVAR =       0     COORD =ZMT     
 PP    =NONE         RELWFN=NONE         LOCAL =NONE         NUMGRD=       F
 ISPHER=       1     NOSYM =       0     MAXIT =      30     UNITS =ANGS    
 PLTORB=       F     MOLPLT=       F     AIMPAC=       F     FRIEND=        
 NPRINT=       7     IREST =       0     GEOM  =INPUT   
 NORMF =       0     NORMP =       0     ITOL  =      20     ICUT  =       9
 INTTYP=BEST         GRDTYP=BEST         QMTTOL= 1.0E-06

     $SYSTEM OPTIONS
     ---------------
  REPLICATED MEMORY=     1000000 WORDS (ON EVERY NODE).
 DISTRIBUTED MEMDDI=           0 MILLION WORDS IN AGGREGATE,
 MEMDDI DISTRIBUTED OVER   1 PROCESSORS IS           0 WORDS/PROCESSOR.
 TOTAL MEMORY REQUESTED ON EACH PROCESSOR=     1000000 WORDS.
 TIMLIM=      525600.00 MINUTES, OR     365.0 DAYS.
 PARALL= F  BALTYP=  DLB     KDIAG=    0  COREFL= F
 MXSEQ2=     300 MXSEQ3=     150

          ----------------
          PROPERTIES INPUT
          ----------------

     MOMENTS            FIELD           POTENTIAL          DENSITY
 IEMOM =       1   IEFLD =       0   IEPOT =       0   IEDEN =       0
 WHERE =COMASS     WHERE =NUCLEI     WHERE =NUCLEI     WHERE =NUCLEI  
 OUTPUT=BOTH       OUTPUT=BOTH       OUTPUT=BOTH       OUTPUT=BOTH    
 IEMINT=       0   IEFINT=       0                     IEDINT=       0
                                                       MORB  =       0
          EXTRAPOLATION IN EFFECT
          DIIS IN EFFECT
 ORBITAL PRINTING OPTION: NPREO=     1    49     2     1

     -------------------------------
     INTEGRAL TRANSFORMATION OPTIONS
     -------------------------------
     NWORD  =            0
     CUTOFF = 1.0E-09     MPTRAN =       0
     DIRTRF =       F     AOINTS =DUP     

          ----------------------
          INTEGRAL INPUT OPTIONS
          ----------------------
 NOPK  =       1 NORDER=       0 SCHWRZ=       F

   --- ENCODED Z MATRIX ---
 COORD  TYPE   I   J   K   L   M   N
    1      1    3   1
    2      1    2   1
    3      2    2   1   3

 THE DETERMINANT OF THE G MATRIX IS 10**(    -4)

 THE DETERMINANT OF THE G MATRIX IS 10**(    -4)
 * * * WARNING * * *
 YOUR B MATRIX HAS A SMALL DETERMINANT.
 THIS SUGGESTS YOU MAY HAVE BADLY CHOSEN COORDINATES.

     ------------------------------------------
     THE POINT GROUP IS CNV, NAXIS= 2, ORDER= 4
     ------------------------------------------

 -- VARIATIONAL SPACE WILL BE RESTRICTED TO PURE SPHERICAL HARMONICS ONLY --
 AFTER EXCLUDING CONTAMINANT COMBINATIONS FROM THE CARTESIAN GAUSSIAN BASIS
 SET, THE NUMBER OF SPHERICAL HARMONICS KEPT IN THE VARIATION SPACE IS   46

     DIMENSIONS OF THE SYMMETRY SUBSPACES ARE
 A1  =   19     A2  =    5     B1  =   14     B2  =    8

 ..... DONE SETTING UP THE RUN .....
 STEP CPU TIME =     0.01 TOTAL CPU TIME =        0.0 (    0.0 MIN)
 TOTAL WALL CLOCK TIME=        0.0 SECONDS, CPU UTILIZATION IS  50.00%

          ********************
          1 ELECTRON INTEGRALS
          ********************
 ...... END OF ONE-ELECTRON INTEGRALS ......
 STEP CPU TIME =     0.00 TOTAL CPU TIME =        0.0 (    0.0 MIN)
 TOTAL WALL CLOCK TIME=        0.0 SECONDS, CPU UTILIZATION IS  50.00%

          -------------
          GUESS OPTIONS
          -------------
          GUESS =HUCKEL            NORB  =       0          NORDER=       0
          MIX   =       F          PRTMO =       F          PUNMO =       F
          TOLZ  = 1.0E-08          TOLE  = 1.0E-05
          SYMDEN=       F          PURIFY=       F

 INITIAL GUESS ORBITALS GENERATED BY HUCKEL   ROUTINE.
 HUCKEL GUESS REQUIRES     21583 WORDS.

 STATISTICS FOR GENERATION OF SYMMETRY ORBITAL -Q- MATRIX
 NUMBER OF CARTESIAN ATOMIC ORBITALS=         49
 NUMBER OF SPHERICAL CONTAMINANTS DROPPED=     3
 NUMBER OF LINEARLY DEPENDENT MOS DROPPED=     0
 TOTAL NUMBER OF MOS IN VARIATION SPACE=      46

 SYMMETRIES FOR INITIAL GUESS ORBITALS FOLLOW.   BOTH SET(S).
    16 ORBITALS ARE OCCUPIED (    7 CORE ORBITALS).
     8=?B1      9=?A1     10=A1      11=B1      12=B2      13=A1      14=A2  
    15=B1      16=?A1     17=B2      18=?A1     19=?B1     20=A1      21=A1  
    22=A1      23=A1      24=A1      25=A1      26=A1  
 ...... END OF INITIAL ORBITAL SELECTION ......
 STEP CPU TIME =     0.01 TOTAL CPU TIME =        0.0 (    0.0 MIN)
 TOTAL WALL CLOCK TIME=        0.0 SECONDS, CPU UTILIZATION IS  66.67%

                    ----------------------
                    AO INTEGRAL TECHNOLOGY
                    ----------------------
     S,P,L SHELL ROTATED AXIS INTEGRALS, REPROGRAMMED BY
        KAZUYA ISHIMURA (IMS) AND JOSE SIERRA (SYNSTAR).
     S,P,D,L SHELL ROTATED AXIS INTEGRALS PROGRAMMED BY
        KAZUYA ISHIMURA (INSTITUTE FOR MOLECULAR SCIENCE).
     S,P,D,F,G SHELL TO TOTAL QUARTET ANGULAR MOMENTUM SUM 5,
        ERIC PROGRAM BY GRAHAM FLETCHER (ELORET AND NASA ADVANCED
        SUPERCOMPUTING DIVISION, AMES RESEARCH CENTER).
     S,P,D,F,G,L SHELL GENERAL RYS QUADRATURE PROGRAMMED BY
        MICHEL DUPUIS (PACIFIC NORTHWEST NATIONAL LABORATORY).

          --------------------
          2 ELECTRON INTEGRALS
          --------------------

 THE -PK- OPTION IS OFF, THE INTEGRALS ARE NOT IN SUPERMATRIX FORM.
 STORING   15000 INTEGRALS/RECORD ON DISK, USING 12 BYTES/INTEGRAL.
 TWO ELECTRON INTEGRAL EVALUATION REQUIRES   90606 WORDS OF MEMORY.
 II,JST,KST,LST =  1  1  1  1 NREC =         1 INTLOC =    1
 II,JST,KST,LST =  2  1  1  1 NREC =         1 INTLOC =    2
 II,JST,KST,LST =  3  1  1  1 NREC =         1 INTLOC =    7
 II,JST,KST,LST =  4  1  1  1 NREC =         1 INTLOC =   22
 II,JST,KST,LST =  5  1  1  1 NREC =         1 INTLOC =   56
 II,JST,KST,LST =  6  1  1  1 NREC =         1 INTLOC =  125
 II,JST,KST,LST =  7  1  1  1 NREC =         1 INTLOC =  329
 II,JST,KST,LST =  8  1  1  1 NREC =         1 INTLOC =  776
 II,JST,KST,LST =  9  1  1  1 NREC =         1 INTLOC = 2864
 II,JST,KST,LST = 10  1  1  1 NREC =         1 INTLOC = 2864
 II,JST,KST,LST = 11  1  1  1 NREC =         1 INTLOC = 2864
 II,JST,KST,LST = 12  1  1  1 NREC =         1 INTLOC = 2864
 II,JST,KST,LST = 13  1  1  1 NREC =         1 INTLOC = 2864
 II,JST,KST,LST = 14  1  1  1 NREC =         1 INTLOC = 2864
 II,JST,KST,LST = 15  1  1  1 NREC =         1 INTLOC = 2864
 II,JST,KST,LST = 16  1  1  1 NREC =         1 INTLOC = 4704
 II,JST,KST,LST = 17  1  1  1 NREC =         1 INTLOC = 7655
 II,JST,KST,LST = 18  1  1  1 NREC =         1 INTLOC =11846
 II,JST,KST,LST = 19  1  1  1 NREC =         2 INTLOC =11812
 II,JST,KST,LST = 20  1  1  1 NREC =         4 INTLOC =10766
 TOTAL NUMBER OF NONZERO TWO-ELECTRON INTEGRALS =              143868
         10 INTEGRAL RECORDS WERE STORED ON DISK FILE  8.
  ...... END OF TWO-ELECTRON INTEGRALS .....
 STEP CPU TIME =     0.15 TOTAL CPU TIME =        0.2 (    0.0 MIN)
 TOTAL WALL CLOCK TIME=        0.2 SECONDS, CPU UTILIZATION IS  94.44%

          --------------------------
               R-PBE SCF CALCULATION
          --------------------------

     NUCLEAR ENERGY =        80.2461745564
     MAXIT =   30     NPUNCH=    2
     EXTRAP=T  DAMP=F  SHIFT=F  RSTRCT=F  DIIS=T  DEM=F  SOSCF=F
         DENSITY MATRIX CONVERGENCE THRESHOLD=  1.00E-05
     COARSE -> FINE DFT GRID SWITCH THRESHOLD=  3.00E-04 (SWITCH IN $DFT)
                   HF -> DFT SWITCH THRESHOLD=  5.00E-03 (SWOFF IN $DFT)
     MEMORY REQUIRED FOR RHF ITERS=    183108 WORDS.

 DFT CODE IS SWITCHING FROM THE FINE GRID NRAD= 96,  NLEB=  302
                      TO THE COARSE GRID NRAD0= 24, NLEB0=  110

     EXCHANGE FUNCTIONAL   =PBE       
     CORRELATION FUNCTIONAL=PBE       
     DFT THRESHOLD         =.460E-07
     GRID CHANGE THRESHOLD =.300E-03
 FOR AN EULER-MACLAURIN QUADRATURE USING  96 RADIAL POINTS:
 SMALLEST GAUSSIAN PRIMITIVE EXPONENT=        0.1313100000 OF TYPE -P-
 ON ATOM NUMBER   1 HAS RADIAL NORMALIZATION=  1.000000
  LARGEST GAUSSIAN PRIMITIVE EXPONENT=    55510.0000000000 OF TYPE -S-
 ON ATOM NUMBER   1 HAS RADIAL NORMALIZATION=  0.999999
 DFT IS SWITCHED OFF, PERFORMING PURE SCF UNTIL SWOFF THRESHOLD IS REACHED.

 ITER EX DEM     TOTAL ENERGY        E CHANGE  DENSITY CHANGE    DIIS ERROR
   1  0  0     -545.5942820470  -545.5942820470   0.713065190   0.948797195
   2  1  0     -545.4657863174     0.1284957296   1.046230135   0.771179108
   3  2  0     -544.5589911524     0.9067951650   1.314168479   0.797068589
   4  3  0     -541.9902022794     2.5687888730   1.394271994   1.617311435
   5  0  0     -542.0562698730    -0.0660675936   0.696827870   1.089815073
          * * *   INITIATING DIIS PROCEDURE   * * *
   6  1  0     -546.4364670565    -4.3801971835   0.618896494   0.271320566
   7  2  0     -546.0384647061     0.3980023504   0.367428954   0.515543491
   8  3  0     -546.7260124199    -0.6875477138   0.032147379   0.040971118
   9  4  0     -546.7379037843    -0.0118913644   0.045776183   0.024998303
  10  5  0     -546.7471491151    -0.0092453309   0.047940554   0.017368662
  11  6  0     -546.7549648068    -0.0078156917   0.068281838   0.018088289
  12  7  0     -546.7653684812    -0.0104036743   0.222256500   0.017046717
  13  8  0     -546.7845985029    -0.0192300217   0.100207731   0.025040029
  14  9  0     -546.7817419593     0.0028565435   0.104809370   0.010118035
  15 10  0     -546.7871469733    -0.0054050139   0.025679158   0.015002081
  16 11  0     -546.7883740029    -0.0012270296   0.035794312   0.005720142
  17 12  0     -546.7894320973    -0.0010580944   0.022827808   0.002966968
  18 13  0     -546.7895984116    -0.0001663142   0.010029218   0.003230654
  19 14  0     -546.7897244741    -0.0001260625   0.003698464   0.000463936
 CONVERGED TO SWOFF, SO DFT CALCULATION IS NOW SWITCHED ON.
          * * *   INITIATING DIIS PROCEDURE   * * *
  20 15  0     -547.9169709389    -1.1272464649   0.615734473   0.102095335
  21 16  0     -548.0147575516    -0.0977866127   0.465135787   0.169668751
  22 17  0     -547.7149538460     0.2998037056   0.259404425   0.428640215
  23 18  0     -548.0990126334    -0.3840587873   0.061183594   0.024369946
  24 19  0     -548.1013768018    -0.0023641685   0.029679141   0.012404525
  25 20  0     -548.1019505150    -0.0005737132   0.007924000   0.006496994
  26 21  0     -548.1021154556    -0.0001649406   0.001055262   0.000339376
  27 22  0     -548.1021164711    -0.0000010155   0.000179563   0.000115702
 DFT CODE IS SWITCHING BACK TO THE FINE GRID
          * * *   INITIATING DIIS PROCEDURE   * * *
  28 23  0     -548.0810351650     0.0210813061   0.009410423   0.007657413
  29 24  0     -548.0811473917    -0.0001122267   0.012949845   0.003840778
  30 25  0     -548.0806318444     0.0005155474   0.012924933   0.016347752

 SCF IS UNCONVERGED, TOO MANY ITERATIONS
     TIME TO FORM FOCK OPERATORS=       1.8 SECONDS (       0.1 SEC/ITER)
     TIME TO SOLVE SCF EQUATIONS=       0.0 SECONDS (       0.0 SEC/ITER)

 FINAL R-PBE ENERGY IS        0.0000000000 AFTER  30 ITERATIONS
 DFT EXCHANGE + CORRELATION ENERGY =       -42.1234828564
 TOTAL ELECTRON NUMBER             =        32.0000015535

          ------------
          EIGENVECTORS
          ------------

                      1          2          3          4          5
                  -88.2230   -18.8402   -18.8401    -7.8403    -5.8620
                     A1         B1         A1         A1         B1  
    1  S  1  S    1.002978   0.000000  -0.000047  -0.274155   0.000000
    2  S  1  S   -0.010278   0.000000  -0.000797   1.039561   0.000000
    3  S  1  S    0.001766   0.000000  -0.001481   0.040131   0.000000
    4  S  1  S   -0.000962   0.000000   0.004658  -0.012419   0.000000
    5  S  1  X    0.000000   0.000119   0.000000   0.000000   0.996966
    6  S  1  Y    0.000000   0.000000   0.000000   0.000000   0.000000
    7  S  1  Z    0.000024   0.000000  -0.000012   0.003791   0.000000
    8  S  1  X    0.000000  -0.000246   0.000000   0.000000   0.008678
    9  S  1  Y    0.000000   0.000000   0.000000   0.000000   0.000000
   10  S  1  Z   -0.000005   0.000000   0.000047   0.000220   0.000000
   11  S  1  X    0.000000  -0.006629   0.000000   0.000000  -0.000157
   12  S  1  Y    0.000000   0.000000   0.000000   0.000000   0.000000
   13  S  1  Z   -0.000008   0.000000   0.000347  -0.000152   0.000000
   14  S  1 XX   -0.000021   0.000000   0.001503   0.000120   0.000000
   15  S  1 YY    0.000011   0.000000  -0.000762  -0.000055   0.000000
   16  S  1 ZZ    0.000010   0.000000  -0.000741  -0.000065   0.000000
   17  S  1 XY    0.000000   0.000000   0.000000   0.000000   0.000000
   18  S  1 XZ    0.000000  -0.000358   0.000000   0.000000   0.000223
   19  S  1 YZ    0.000000   0.000000   0.000000   0.000000   0.000000
   20  O  2  S   -0.000002   0.703268   0.703196   0.000007   0.000021
   21  O  2  S   -0.000011   0.025429   0.024437   0.000024   0.000090
   22  O  2  S    0.000090  -0.011638  -0.008745   0.000694  -0.000077
   23  O  2  X    0.000016   0.000760   0.000642   0.000072   0.000062
   24  O  2  Y    0.000000   0.000000   0.000000   0.000000   0.000000
   25  O  2  Z   -0.000002  -0.000090  -0.000029  -0.000014  -0.000013
   26  O  2  X    0.000005  -0.002821  -0.001825  -0.000185  -0.000104
   27  O  2  Y    0.000000   0.000000   0.000000   0.000000   0.000000
   28  O  2  Z    0.000002   0.000368   0.000082   0.000049   0.000032
   29  O  2 XX   -0.000034  -0.000238  -0.000349  -0.000528  -0.000086
   30  O  2 YY    0.000017   0.000124   0.000179   0.000267   0.000044
   31  O  2 ZZ    0.000017   0.000114   0.000170   0.000260   0.000042
   32  O  2 XY    0.000000   0.000000   0.000000   0.000000   0.000000
   33  O  2 XZ    0.000006   0.000059   0.000060   0.000085   0.000020
   34  O  2 YZ    0.000000   0.000000   0.000000   0.000000   0.000000
   35  O  3  S   -0.000002  -0.703268   0.703196   0.000007  -0.000021
   36  O  3  S   -0.000011  -0.025429   0.024437   0.000024  -0.000090
   37  O  3  S    0.000090   0.011638  -0.008745   0.000694   0.000077
   38  O  3  X   -0.000016   0.000760  -0.000642  -0.000072   0.000062
   39  O  3  Y    0.000000   0.000000   0.000000   0.000000   0.000000
   40  O  3  Z   -0.000002   0.000090  -0.000029  -0.000014   0.000013
   41  O  3  X   -0.000005  -0.002821   0.001825   0.000185  -0.000104
   42  O  3  Y    0.000000   0.000000   0.000000   0.000000   0.000000
   43  O  3  Z    0.000002  -0.000368   0.000082   0.000049  -0.000032
   44  O  3 XX   -0.000034   0.000238  -0.000349  -0.000528   0.000086
   45  O  3 YY    0.000017  -0.000124   0.000179   0.000267  -0.000044
   46  O  3 ZZ    0.000017  -0.000114   0.000170   0.000260  -0.000042
   47  O  3 XY    0.000000   0.000000   0.000000   0.000000   0.000000
   48  O  3 XZ   -0.000006   0.000059  -0.000060  -0.000085   0.000020
   49  O  3 YZ    0.000000   0.000000   0.000000   0.000000   0.000000

                      6          7          8          9         10
                   -5.8589    -5.8586    -0.8995    -0.8771    -0.6691
                     B2         A1         A1         B1         A1  
    1  S  1  S    0.000000   0.001051   0.036061   0.000000   0.078177
    2  S  1  S    0.000000  -0.003987  -0.108420   0.000000  -0.227189
    3  S  1  S    0.000000   0.000030   0.209221   0.000000   0.480636
    4  S  1  S    0.000000  -0.000126   0.181355   0.000000   0.472001
    5  S  1  X    0.000000   0.000000   0.000000   0.062200   0.000000
    6  S  1  Y    0.996993   0.000000   0.000000   0.000000   0.000000
    7  S  1  Z    0.000000   0.996991  -0.006712   0.000000  -0.003148
    8  S  1  X    0.000000   0.000000   0.000000  -0.125573   0.000000
    9  S  1  Y    0.008626   0.000000   0.000000   0.000000   0.000000
   10  S  1  Z    0.000000   0.008611   0.014474   0.000000   0.009205
   11  S  1  X    0.000000   0.000000   0.000000  -0.032910   0.000000
   12  S  1  Y   -0.000113   0.000000   0.000000   0.000000   0.000000
   13  S  1  Z    0.000000  -0.000114   0.004382   0.000000   0.001036
   14  S  1 XX    0.000000  -0.000170   0.034178   0.000000  -0.009717
   15  S  1 YY    0.000000  -0.000105  -0.017325   0.000000   0.005051
   16  S  1 ZZ    0.000000   0.000275  -0.016852   0.000000   0.004666
   17  S  1 XY    0.000000   0.000000   0.000000   0.000000   0.000000
   18  S  1 XZ    0.000000   0.000000   0.000000  -0.006700   0.000000
   19  S  1 YZ    0.000219   0.000000   0.000000   0.000000   0.000000
   20  O  2  S    0.000000  -0.000005  -0.140852  -0.155917   0.083672
   21  O  2  S    0.000000  -0.000037   0.284948   0.315209  -0.174866
   22  O  2  S    0.000000   0.000073   0.357921   0.404683  -0.259045
   23  O  2  X    0.000000  -0.000008   0.056247   0.047787   0.084395
   24  O  2  Y   -0.000001   0.000000   0.000000   0.000000   0.000000
   25  O  2  Z    0.000000   0.000000  -0.004157  -0.003774  -0.005385
   26  O  2  X    0.000000   0.000059   0.029886   0.031794   0.036348
   27  O  2  Y   -0.000030   0.000000   0.000000   0.000000   0.000000
   28  O  2  Z    0.000000  -0.000036  -0.002412  -0.002417  -0.001433
   29  O  2 XX    0.000000   0.000024   0.006055   0.005600   0.007129
   30  O  2 YY    0.000000  -0.000013  -0.002768  -0.002508  -0.003768
   31  O  2 ZZ    0.000000  -0.000011  -0.003287  -0.003092  -0.003362
   32  O  2 XY   -0.000023   0.000000   0.000000   0.000000   0.000000
   33  O  2 XZ    0.000000  -0.000028   0.000449   0.000599  -0.001667
   34  O  2 YZ    0.000001   0.000000   0.000000   0.000000   0.000000
   35  O  3  S    0.000000  -0.000005  -0.140852   0.155917   0.083672
   36  O  3  S    0.000000  -0.000037   0.284948  -0.315209  -0.174866
   37  O  3  S    0.000000   0.000073   0.357921  -0.404683  -0.259045
   38  O  3  X    0.000000   0.000008  -0.056247   0.047787  -0.084395
   39  O  3  Y   -0.000001   0.000000   0.000000   0.000000   0.000000
   40  O  3  Z    0.000000   0.000000  -0.004157   0.003774  -0.005385
   41  O  3  X    0.000000  -0.000059  -0.029886   0.031794  -0.036348
   42  O  3  Y   -0.000030   0.000000   0.000000   0.000000   0.000000
   43  O  3  Z    0.000000  -0.000036  -0.002412   0.002417  -0.001433
   44  O  3 XX    0.000000   0.000024   0.006055  -0.005600   0.007129
   45  O  3 YY    0.000000  -0.000013  -0.002768   0.002508  -0.003768
   46  O  3 ZZ    0.000000  -0.000011  -0.003287   0.003092  -0.003362
   47  O  3 XY    0.000023   0.000000   0.000000   0.000000   0.000000
   48  O  3 XZ    0.000000   0.000028  -0.000449   0.000599   0.001667
   49  O  3 YZ    0.000001   0.000000   0.000000   0.000000   0.000000

                     11         12         13         14         15
                   -0.4214    -0.3680    -0.3679    -0.3086    -0.3072
                     B1         B2         A1         A2         B1  
    1  S  1  S    0.000000   0.000000  -0.004012   0.000000   0.000000
    2  S  1  S    0.000000   0.000000   0.012677   0.000000   0.000000
    3  S  1  S    0.000000   0.000000  -0.024082   0.000000   0.000000
    4  S  1  S    0.000000   0.000000  -0.041810   0.000000   0.000000
    5  S  1  X   -0.186515   0.000000   0.000000   0.000000  -0.010551
    6  S  1  Y    0.000000  -0.210349   0.000000   0.000000   0.000000
    7  S  1  Z    0.000000   0.000000  -0.210371   0.000000   0.000000
    8  S  1  X    0.439275   0.000000   0.000000   0.000000   0.024387
    9  S  1  Y    0.000000   0.495729   0.000000   0.000000   0.000000
   10  S  1  Z    0.000000   0.000000   0.495630   0.000000   0.000000
   11  S  1  X    0.138488   0.000000   0.000000   0.000000   0.028467
   12  S  1  Y    0.000000   0.344884   0.000000   0.000000   0.000000
   13  S  1  Z    0.000000   0.000000   0.343697   0.000000   0.000000
   14  S  1 XX    0.000000   0.000000   0.001398   0.000000   0.000000
   15  S  1 YY    0.000000   0.000000  -0.007401   0.000000   0.000000
   16  S  1 ZZ    0.000000   0.000000   0.006003   0.000000   0.000000
   17  S  1 XY    0.000000   0.000000   0.000000  -0.065370   0.000000
   18  S  1 XZ    0.010678   0.000000   0.000000   0.000000  -0.064857
   19  S  1 YZ    0.000000   0.007723   0.000000   0.000000   0.000000
   20  O  2  S   -0.045839   0.000000   0.002992   0.000000  -0.001846
   21  O  2  S    0.105449   0.000000  -0.005793   0.000000   0.002458
   22  O  2  S    0.153663   0.000000  -0.013704   0.000000   0.014213
   23  O  2  X   -0.345788   0.000000   0.074725   0.000000   0.048638
   24  O  2  Y    0.000000   0.286739   0.000000   0.475419   0.000000
   25  O  2  Z    0.021971   0.000000   0.276780   0.000000   0.472289
   26  O  2  X   -0.228007   0.000000   0.047505   0.000000   0.038019
   27  O  2  Y    0.000000   0.182252   0.000000   0.336718   0.000000
   28  O  2  Z    0.014753   0.000000   0.175991   0.000000   0.334345
   29  O  2 XX   -0.015499   0.000000   0.003165   0.000000   0.001396
   30  O  2 YY    0.007941   0.000000  -0.000814   0.000000   0.000131
   31  O  2 ZZ    0.007558   0.000000  -0.002351   0.000000  -0.001527
   32  O  2 XY    0.000000   0.011233   0.000000   0.010418   0.000000
   33  O  2 XZ    0.002837   0.000000   0.010732   0.000000   0.010333
   34  O  2 YZ    0.000000  -0.000920   0.000000  -0.000956   0.000000
   35  O  3  S    0.045839   0.000000   0.002992   0.000000   0.001846
   36  O  3  S   -0.105449   0.000000  -0.005793   0.000000  -0.002458
   37  O  3  S   -0.153663   0.000000  -0.013704   0.000000  -0.014213
   38  O  3  X   -0.345788   0.000000  -0.074725   0.000000   0.048638
   39  O  3  Y    0.000000   0.286739   0.000000  -0.475419   0.000000
   40  O  3  Z   -0.021971   0.000000   0.276780   0.000000  -0.472289
   41  O  3  X   -0.228007   0.000000  -0.047505   0.000000   0.038019
   42  O  3  Y    0.000000   0.182252   0.000000  -0.336718   0.000000
   43  O  3  Z   -0.014753   0.000000   0.175991   0.000000  -0.334345
   44  O  3 XX    0.015499   0.000000   0.003165   0.000000  -0.001396
   45  O  3 YY   -0.007941   0.000000  -0.000814   0.000000  -0.000131
   46  O  3 ZZ   -0.007558   0.000000  -0.002351   0.000000   0.001527
   47  O  3 XY    0.000000  -0.011233   0.000000   0.010418   0.000000
   48  O  3 XZ    0.002837   0.000000  -0.010732   0.000000   0.010333
   49  O  3 YZ    0.000000  -0.000920   0.000000   0.000956   0.000000

                     16         17         18         19         20
                   -0.2756    -0.2466    -0.2438    -0.0494     0.3580
                     A1         B2         A1         B1         B1  
    1  S  1  S   -0.025929   0.000000   0.006125   0.000000   0.000000
    2  S  1  S    0.088869   0.000000  -0.018352   0.000000   0.000000
    3  S  1  S   -0.150752   0.000000   0.039618   0.000000   0.000000
    4  S  1  S   -0.365256   0.000000   0.079231   0.000000   0.000000
    5  S  1  X    0.000000   0.000000   0.000000  -0.250808   0.234719
    6  S  1  Y    0.000000  -0.196009   0.000000   0.000000   0.000000
    7  S  1  Z   -0.019638   0.000000  -0.195025   0.000000   0.000000
    8  S  1  X    0.000000   0.000000   0.000000   0.655872  -0.977395
    9  S  1  Y    0.000000   0.484627   0.000000   0.000000   0.000000
   10  S  1  Z    0.048182   0.000000   0.482630   0.000000   0.000000
   11  S  1  X    0.000000   0.000000   0.000000   0.696840   1.857276
   12  S  1  Y    0.000000   0.339967   0.000000   0.000000   0.000000
   13  S  1  Z    0.015270   0.000000   0.342748   0.000000   0.000000
   14  S  1 XX    0.118357   0.000000  -0.026051   0.000000   0.000000
   15  S  1 YY   -0.059048   0.000000   0.013811   0.000000   0.000000
   16  S  1 ZZ   -0.059309   0.000000   0.012240   0.000000   0.000000
   17  S  1 XY    0.000000   0.000000   0.000000   0.000000   0.000000
   18  S  1 XZ    0.000000   0.000000   0.000000  -0.025069  -0.183301
   19  S  1 YZ    0.000000  -0.000827   0.000000   0.000000   0.000000
   20  O  2  S   -0.000491   0.000000   0.003619  -0.048162  -0.042818
   21  O  2  S   -0.001609   0.000000  -0.007178   0.101212   0.063067
   22  O  2  S    0.031050   0.000000  -0.024541   0.321925   0.615074
   23  O  2  X    0.453173   0.000000  -0.142660   0.373871  -0.160424
   24  O  2  Y    0.000000  -0.400810   0.000000   0.000000   0.000000
   25  O  2  Z   -0.154631   0.000000  -0.375940  -0.062180  -0.068703
   26  O  2  X    0.324532   0.000000  -0.104450   0.354266   0.423057
   27  O  2  Y    0.000000  -0.287219   0.000000   0.000000   0.000000
   28  O  2  Z   -0.109766   0.000000  -0.269475  -0.049970  -0.010126
   29  O  2 XX    0.008252   0.000000  -0.001088  -0.006626   0.048973
   30  O  2 YY   -0.004341   0.000000   0.000512   0.003556  -0.023826
   31  O  2 ZZ   -0.003911   0.000000   0.000576   0.003070  -0.025147
   32  O  2 XY    0.000000  -0.000124   0.000000   0.000000   0.000000
   33  O  2 XZ   -0.003256   0.000000   0.000369   0.002863   0.003698
   34  O  2 YZ    0.000000   0.000070   0.000000   0.000000   0.000000
   35  O  3  S   -0.000491   0.000000   0.003619   0.048162   0.042818
   36  O  3  S   -0.001609   0.000000  -0.007178  -0.101212  -0.063067
   37  O  3  S    0.031050   0.000000  -0.024541  -0.321925  -0.615074
   38  O  3  X   -0.453173   0.000000   0.142660   0.373871  -0.160424
   39  O  3  Y    0.000000  -0.400810   0.000000   0.000000   0.000000
   40  O  3  Z   -0.154631   0.000000  -0.375940   0.062180   0.068703
   41  O  3  X   -0.324532   0.000000   0.104450   0.354266   0.423057
   42  O  3  Y    0.000000  -0.287219   0.000000   0.000000   0.000000
   43  O  3  Z   -0.109766   0.000000  -0.269475   0.049970   0.010126
   44  O  3 XX    0.008252   0.000000  -0.001088   0.006626  -0.048973
   45  O  3 YY   -0.004341   0.000000   0.000512  -0.003556   0.023826
   46  O  3 ZZ   -0.003911   0.000000   0.000576  -0.003070   0.025147
   47  O  3 XY    0.000000   0.000124   0.000000   0.000000   0.000000
   48  O  3 XZ    0.003256   0.000000  -0.000369   0.002863   0.003698
   49  O  3 YZ    0.000000   0.000070   0.000000   0.000000   0.000000

                     21         22         23         24         25
                    0.3711     0.3719     0.3903     0.4603     0.4725
                     A1         B2         A1         A2         B1  
    1  S  1  S   -0.023738   0.000000  -0.105885   0.000000   0.000000
    2  S  1  S   -0.092446   0.000000  -0.370923   0.000000   0.000000
    3  S  1  S   -0.375435   0.000000  -1.621686   0.000000   0.000000
    4  S  1  S    0.469916   0.000000   1.874079   0.000000   0.000000
    5  S  1  X    0.000000   0.000000   0.000000   0.000000   0.051861
    6  S  1  Y    0.000000   0.299176   0.000000   0.000000   0.000000
    7  S  1  Z    0.290367   0.000000  -0.070798   0.000000   0.000000
    8  S  1  X    0.000000   0.000000   0.000000   0.000000  -0.231655
    9  S  1  Y    0.000000  -1.152037   0.000000   0.000000   0.000000
   10  S  1  Z   -1.118460   0.000000   0.272155   0.000000   0.000000
   11  S  1  X    0.000000   0.000000   0.000000   0.000000   0.535927
   12  S  1  Y    0.000000   1.208189   0.000000   0.000000   0.000000
   13  S  1  Z    1.181408   0.000000  -0.266438   0.000000   0.000000
   14  S  1 XX   -0.083660   0.000000  -0.341405   0.000000   0.000000
   15  S  1 YY    0.068126   0.000000   0.165277   0.000000   0.000000
   16  S  1 ZZ    0.015534   0.000000   0.176128   0.000000   0.000000
   17  S  1 XY    0.000000   0.000000   0.000000   0.841196   0.000000
   18  S  1 XZ    0.000000   0.000000   0.000000   0.000000   0.821663
   19  S  1 YZ    0.000000  -0.030592   0.000000   0.000000   0.000000
   20  O  2  S    0.004081   0.000000   0.009488   0.000000  -0.019678
   21  O  2  S   -0.000562   0.000000  -0.007404   0.000000   0.071757
   22  O  2  S   -0.079698   0.000000  -0.168719   0.000000   0.155095
   23  O  2  X    0.030680   0.000000   0.101679   0.000000   0.021214
   24  O  2  Y    0.000000  -0.119165   0.000000   0.335169   0.000000
   25  O  2  Z   -0.124180   0.000000  -0.001850   0.000000   0.322490
   26  O  2  X   -0.067841   0.000000  -0.159784   0.000000   0.124299
   27  O  2  Y    0.000000  -0.055837   0.000000  -0.231071   0.000000
   28  O  2  Z   -0.046786   0.000000   0.035607   0.000000  -0.244864
   29  O  2 XX   -0.014932   0.000000  -0.044553   0.000000  -0.001152
   30  O  2 YY    0.007735   0.000000   0.022768   0.000000  -0.003576
   31  O  2 ZZ    0.007197   0.000000   0.021785   0.000000   0.004728
   32  O  2 XY    0.000000  -0.001121   0.000000  -0.049540   0.000000
   33  O  2 XZ    0.001936   0.000000   0.010066   0.000000  -0.048135
   34  O  2 YZ    0.000000  -0.000134   0.000000   0.004951   0.000000
   35  O  3  S    0.004081   0.000000   0.009488   0.000000   0.019678
   36  O  3  S   -0.000562   0.000000  -0.007404   0.000000  -0.071757
   37  O  3  S   -0.079698   0.000000  -0.168719   0.000000  -0.155095
   38  O  3  X   -0.030680   0.000000  -0.101679   0.000000   0.021214
   39  O  3  Y    0.000000  -0.119165   0.000000  -0.335169   0.000000
   40  O  3  Z   -0.124180   0.000000  -0.001850   0.000000  -0.322490
   41  O  3  X    0.067841   0.000000   0.159784   0.000000   0.124299
   42  O  3  Y    0.000000  -0.055837   0.000000   0.231071   0.000000
   43  O  3  Z   -0.046786   0.000000   0.035607   0.000000   0.244864
   44  O  3 XX   -0.014932   0.000000  -0.044553   0.000000   0.001152
   45  O  3 YY    0.007735   0.000000   0.022768   0.000000   0.003576
   46  O  3 ZZ    0.007197   0.000000   0.021785   0.000000  -0.004728
   47  O  3 XY    0.000000   0.001121   0.000000  -0.049540   0.000000
   48  O  3 XZ   -0.001936   0.000000  -0.010066   0.000000  -0.048135
   49  O  3 YZ    0.000000  -0.000134   0.000000  -0.004951   0.000000

                     26         27         28         29         30
                    0.5048     0.5048     0.6894     0.7933     0.7959
                     B2         A1         A1         B2         A1  
    1  S  1  S    0.000000   0.000468  -0.050434   0.000000  -0.003868
    2  S  1  S    0.000000   0.001562  -0.224280   0.000000  -0.012777
    3  S  1  S    0.000000   0.007071  -0.836743   0.000000  -0.058869
    4  S  1  S    0.000000  -0.008046   1.145701   0.000000   0.056484
    5  S  1  X    0.000000   0.000000   0.000000   0.000000   0.000000
    6  S  1  Y    0.009052   0.000000   0.000000  -0.033962   0.000000
    7  S  1  Z    0.000000   0.009162   0.005439   0.000000  -0.033079
    8  S  1  X    0.000000   0.000000   0.000000   0.000000   0.000000
    9  S  1  Y   -0.031696   0.000000   0.000000   0.178744   0.000000
   10  S  1  Z    0.000000  -0.032104  -0.031063   0.000000   0.174310
   11  S  1  X    0.000000   0.000000   0.000000   0.000000   0.000000
   12  S  1  Y    0.014787   0.000000   0.000000  -0.510393   0.000000
   13  S  1  Z    0.000000   0.015078   0.106962   0.000000  -0.501946
   14  S  1 XX    0.000000  -0.006610   0.890748   0.000000   0.127207
   15  S  1 YY    0.000000  -0.860387  -0.458272   0.000000  -0.010845
   16  S  1 ZZ    0.000000   0.866996  -0.432476   0.000000  -0.116362
   17  S  1 XY    0.000000   0.000000   0.000000   0.000000   0.000000
   18  S  1 XZ    0.000000   0.000000   0.000000   0.000000   0.000000
   19  S  1 YZ    0.997359   0.000000   0.000000  -0.062124   0.000000
   20  O  2  S    0.000000  -0.000123   0.051309   0.000000   0.003198
   21  O  2  S    0.000000   0.000697  -0.338647   0.000000  -0.019453
   22  O  2  S    0.000000   0.000115   0.028864   0.000000   0.010556
   23  O  2  X    0.000000  -0.003157  -0.111307   0.000000  -0.089688
   24  O  2  Y   -0.039455   0.000000   0.000000  -0.628267   0.000000
   25  O  2  Z    0.000000  -0.039523   0.084079   0.000000  -0.617862
   26  O  2  X    0.000000   0.003476  -0.281145   0.000000   0.081600
   27  O  2  Y    0.028910   0.000000   0.000000   0.823322   0.000000
   28  O  2  Z    0.000000   0.028743  -0.061658   0.000000   0.814174
   29  O  2 XX    0.000000   0.000861   0.051056   0.000000   0.008464
   30  O  2 YY    0.000000  -0.009874  -0.026738   0.000000  -0.004612
   31  O  2 ZZ    0.000000   0.009013  -0.024318   0.000000  -0.003852
   32  O  2 XY    0.006048   0.000000   0.000000  -0.015102   0.000000
   33  O  2 XZ    0.000000   0.006015  -0.015318   0.000000  -0.018045
   34  O  2 YZ    0.010906   0.000000   0.000000   0.000201   0.000000
   35  O  3  S    0.000000  -0.000123   0.051309   0.000000   0.003198
   36  O  3  S    0.000000   0.000697  -0.338647   0.000000  -0.019453
   37  O  3  S    0.000000   0.000115   0.028864   0.000000   0.010556
   38  O  3  X    0.000000   0.003157   0.111307   0.000000   0.089688
   39  O  3  Y   -0.039455   0.000000   0.000000  -0.628267   0.000000
   40  O  3  Z    0.000000  -0.039523   0.084079   0.000000  -0.617862
   41  O  3  X    0.000000  -0.003476   0.281145   0.000000  -0.081600
   42  O  3  Y    0.028910   0.000000   0.000000   0.823322   0.000000
   43  O  3  Z    0.000000   0.028743  -0.061658   0.000000   0.814174
   44  O  3 XX    0.000000   0.000861   0.051056   0.000000   0.008464
   45  O  3 YY    0.000000  -0.009874  -0.026738   0.000000  -0.004612
   46  O  3 ZZ    0.000000   0.009013  -0.024318   0.000000  -0.003852
   47  O  3 XY   -0.006048   0.000000   0.000000   0.015102   0.000000
   48  O  3 XZ    0.000000  -0.006015   0.015318   0.000000   0.018045
   49  O  3 YZ    0.010906   0.000000   0.000000   0.000201   0.000000

                     31         32         33         34         35
                    0.8019     0.8031     0.8106     0.8286     1.4278
                     B1         A2         A1         B1         A1  
    1  S  1  S    0.000000   0.000000  -0.022886   0.000000   0.022781
    2  S  1  S    0.000000   0.000000  -0.012981   0.000000   0.224826
    3  S  1  S    0.000000   0.000000  -0.278147   0.000000   0.529315
    4  S  1  S    0.000000   0.000000  -0.244100   0.000000  -1.247052
    5  S  1  X   -0.020506   0.000000   0.000000  -0.116652   0.000000
    6  S  1  Y    0.000000   0.000000   0.000000   0.000000   0.000000
    7  S  1  Z    0.000000   0.000000   0.011479   0.000000   0.002080
    8  S  1  X    0.100286   0.000000   0.000000   0.551785   0.000000
    9  S  1  Y    0.000000   0.000000   0.000000   0.000000   0.000000
   10  S  1  Z    0.000000   0.000000  -0.054406   0.000000  -0.004170
   11  S  1  X   -0.024472   0.000000   0.000000  -0.101379   0.000000
   12  S  1  Y    0.000000   0.000000   0.000000   0.000000   0.000000
   13  S  1  Z    0.000000   0.000000   0.018382   0.000000  -0.090183
   14  S  1 XX    0.000000   0.000000  -0.097125   0.000000  -0.481111
   15  S  1 YY    0.000000   0.000000   0.047507   0.000000   0.244296
   16  S  1 ZZ    0.000000   0.000000   0.049618   0.000000   0.236815
   17  S  1 XY    0.000000   0.557636   0.000000   0.000000   0.000000
   18  S  1 XZ    0.547428   0.000000   0.000000  -0.093399   0.000000
   19  S  1 YZ    0.000000   0.000000   0.000000   0.000000   0.000000
   20  O  2  S   -0.005935   0.000000  -0.020507  -0.018276   0.020724
   21  O  2  S    0.053643   0.000000   0.207917   0.211415  -1.057743
   22  O  2  S   -0.036236   0.000000  -0.120684  -0.176911   1.288025
   23  O  2  X   -0.147991   0.000000  -0.615221  -0.572962  -0.123173
   24  O  2  Y    0.000000  -0.553512   0.000000   0.000000   0.000000
   25  O  2  Z   -0.533788   0.000000   0.074556   0.153391  -0.000660
   26  O  2  X    0.223067   0.000000   0.845524   0.782445   0.501284
   27  O  2  Y    0.000000   0.712837   0.000000   0.000000   0.000000
   28  O  2  Z    0.683252   0.000000  -0.099539  -0.200704  -0.019239
   29  O  2 XX   -0.023596   0.000000  -0.032377  -0.048485  -0.195579
   30  O  2 YY    0.007984   0.000000   0.016412   0.025416   0.099638
   31  O  2 ZZ    0.015612   0.000000   0.015965   0.023069   0.095941
   32  O  2 XY    0.000000  -0.047963   0.000000   0.000000   0.000000
   33  O  2 XZ   -0.043067   0.000000   0.004965   0.017311   0.032409
   34  O  2 YZ    0.000000   0.004728   0.000000   0.000000   0.000000
   35  O  3  S    0.005935   0.000000  -0.020507   0.018276   0.020724
   36  O  3  S   -0.053643   0.000000   0.207917  -0.211415  -1.057743
   37  O  3  S    0.036236   0.000000  -0.120684   0.176911   1.288025
   38  O  3  X   -0.147991   0.000000   0.615221  -0.572962   0.123173
   39  O  3  Y    0.000000   0.553512   0.000000   0.000000   0.000000
   40  O  3  Z    0.533788   0.000000   0.074556  -0.153391  -0.000660
   41  O  3  X    0.223067   0.000000  -0.845524   0.782445  -0.501284
   42  O  3  Y    0.000000  -0.712837   0.000000   0.000000   0.000000
   43  O  3  Z   -0.683252   0.000000  -0.099539   0.200704  -0.019239
   44  O  3 XX    0.023596   0.000000  -0.032377   0.048485  -0.195579
   45  O  3 YY   -0.007984   0.000000   0.016412  -0.025416   0.099638
   46  O  3 ZZ   -0.015612   0.000000   0.015965  -0.023069   0.095941
   47  O  3 XY    0.000000  -0.047963   0.000000   0.000000   0.000000
   48  O  3 XZ   -0.043067   0.000000  -0.004965   0.017311  -0.032409
   49  O  3 YZ    0.000000  -0.004728   0.000000   0.000000   0.000000

                     36         37         38         39         40
                    1.6754     2.0762     2.0762     2.0770     2.0771
                     B1         A2         B1         B2         A1  
    1  S  1  S    0.000000   0.000000   0.000000   0.000000  -0.000007
    2  S  1  S    0.000000   0.000000   0.000000   0.000000  -0.002266
    3  S  1  S    0.000000   0.000000   0.000000   0.000000  -0.002974
    4  S  1  S    0.000000   0.000000   0.000000   0.000000   0.011932
    5  S  1  X   -0.023985   0.000000  -0.000234   0.000000   0.000000
    6  S  1  Y    0.000000   0.000000   0.000000   0.001200   0.000000
    7  S  1  Z    0.000000   0.000000   0.000000   0.000000  -0.001165
    8  S  1  X    0.011416   0.000000   0.000577   0.000000   0.000000
    9  S  1  Y    0.000000   0.000000   0.000000   0.005886   0.000000
   10  S  1  Z    0.000000   0.000000   0.000000   0.000000  -0.004671
   11  S  1  X    1.414726   0.000000   0.000741   0.000000   0.000000
   12  S  1  Y    0.000000   0.000000   0.000000  -0.043143   0.000000
   13  S  1  Z    0.000000   0.000000   0.000000   0.000000   0.038026
   14  S  1 XX    0.000000   0.000000   0.000000   0.000000   0.000799
   15  S  1 YY    0.000000   0.000000   0.000000   0.000000  -0.028617
   16  S  1 ZZ    0.000000   0.000000   0.000000   0.000000   0.027818
   17  S  1 XY    0.000000   0.017919   0.000000   0.000000   0.000000
   18  S  1 XZ    0.100203   0.000000  -0.017673   0.000000   0.000000
   19  S  1 YZ    0.000000   0.000000   0.000000  -0.032950   0.000000
   20  O  2  S    0.010850   0.000000   0.000052   0.000000  -0.000025
   21  O  2  S   -1.226523   0.000000  -0.000148   0.000000   0.006811
   22  O  2  S    1.802325   0.000000   0.000040   0.000000  -0.009966
   23  O  2  X   -0.159506   0.000000  -0.000106   0.000000   0.002758
   24  O  2  Y    0.000000  -0.002489   0.000000  -0.009396   0.000000
   25  O  2  Z    0.027270   0.000000   0.002478   0.000000   0.008082
   26  O  2  X    0.639570   0.000000  -0.000273   0.000000  -0.007354
   27  O  2  Y    0.000000   0.004070   0.000000   0.017414   0.000000
   28  O  2  Z   -0.086642   0.000000  -0.003985   0.000000  -0.014857
   29  O  2 XX   -0.151504   0.000000  -0.013653   0.000000  -0.042583
   30  O  2 YY    0.075929   0.000000   0.608662   0.000000   0.595073
   31  O  2 ZZ    0.075575   0.000000  -0.595009   0.000000  -0.552490
   32  O  2 XY    0.000000   0.130437   0.000000   0.276327   0.000000
   33  O  2 XZ    0.014633   0.000000  -0.129915   0.000000  -0.243889
   34  O  2 YZ    0.000000   0.694976   0.000000   0.651165   0.000000
   35  O  3  S   -0.010850   0.000000  -0.000052   0.000000  -0.000025
   36  O  3  S    1.226523   0.000000   0.000148   0.000000   0.006811
   37  O  3  S   -1.802325   0.000000  -0.000040   0.000000  -0.009966
   38  O  3  X   -0.159506   0.000000  -0.000106   0.000000  -0.002758
   39  O  3  Y    0.000000   0.002489   0.000000  -0.009396   0.000000
   40  O  3  Z   -0.027270   0.000000  -0.002478   0.000000   0.008082
   41  O  3  X    0.639570   0.000000  -0.000273   0.000000   0.007354
   42  O  3  Y    0.000000  -0.004070   0.000000   0.017414   0.000000
   43  O  3  Z    0.086642   0.000000   0.003985   0.000000  -0.014857
   44  O  3 XX    0.151504   0.000000   0.013653   0.000000  -0.042583
   45  O  3 YY   -0.075929   0.000000  -0.608662   0.000000   0.595073
   46  O  3 ZZ   -0.075575   0.000000   0.595009   0.000000  -0.552490
   47  O  3 XY    0.000000   0.130437   0.000000  -0.276327   0.000000
   48  O  3 XZ    0.014633   0.000000  -0.129915   0.000000   0.243889
   49  O  3 YZ    0.000000  -0.694976   0.000000   0.651165   0.000000

                     41         42         43         44         45
                    2.0865     2.0882     2.1200     2.1214     2.2206
                     B2         A1         B1         A2         B1  
    1  S  1  S    0.000000  -0.000079   0.000000   0.000000   0.000000
    2  S  1  S    0.000000   0.006960   0.000000   0.000000   0.000000
    3  S  1  S    0.000000   0.008066   0.000000   0.000000   0.000000
    4  S  1  S    0.000000  -0.036399   0.000000   0.000000   0.000000
    5  S  1  X    0.000000   0.000000   0.014535   0.000000  -0.110175
    6  S  1  Y    0.003950   0.000000   0.000000   0.000000   0.000000
    7  S  1  Z    0.000000   0.004463   0.000000   0.000000   0.000000
    8  S  1  X    0.000000   0.000000  -0.047383   0.000000   0.372424
    9  S  1  Y    0.016955   0.000000   0.000000   0.000000   0.000000
   10  S  1  Z    0.000000   0.015526   0.000000   0.000000   0.000000
   11  S  1  X    0.000000   0.000000  -0.035163   0.000000   0.301877
   12  S  1  Y   -0.130553   0.000000   0.000000   0.000000   0.000000
   13  S  1  Z    0.000000  -0.133767   0.000000   0.000000   0.000000
   14  S  1 XX    0.000000   0.000466   0.000000   0.000000   0.000000
   15  S  1 YY    0.000000   0.008725   0.000000   0.000000   0.000000
   16  S  1 ZZ    0.000000  -0.009191   0.000000   0.000000   0.000000
   17  S  1 XY    0.000000   0.000000   0.000000   0.205444   0.000000
   18  S  1 XZ    0.000000   0.000000   0.191694   0.000000   0.107002
   19  S  1 YZ   -0.008813   0.000000   0.000000   0.000000   0.000000
   20  O  2  S    0.000000   0.000354   0.000115   0.000000  -0.001521
   21  O  2  S    0.000000  -0.021785   0.034709   0.000000  -0.340099
   22  O  2  S    0.000000   0.030475  -0.052046   0.000000   0.506900
   23  O  2  X    0.000000  -0.009244   0.012667   0.000000  -0.106577
   24  O  2  Y   -0.027550   0.000000   0.000000  -0.027506   0.000000
   25  O  2  Z    0.000000  -0.027529  -0.027864   0.000000   0.004658
   26  O  2  X    0.000000   0.023253  -0.028644   0.000000   0.311699
   27  O  2  Y    0.050392   0.000000   0.000000   0.046553   0.000000
   28  O  2  Z    0.000000   0.049961   0.047325   0.000000  -0.018295
   29  O  2 XX    0.000000   0.136612   0.016147   0.000000   0.702029
   30  O  2 YY    0.000000   0.145507   0.104682   0.000000  -0.341851
   31  O  2 ZZ    0.000000  -0.282119  -0.120828   0.000000  -0.360177
   32  O  2 XY    0.654321   0.000000   0.000000   0.695384   0.000000
   33  O  2 XZ    0.000000   0.651591   0.695185   0.000000  -0.017327
   34  O  2 YZ   -0.275623   0.000000   0.000000  -0.130436   0.000000
   35  O  3  S    0.000000   0.000354  -0.000115   0.000000   0.001521
   36  O  3  S    0.000000  -0.021785  -0.034709   0.000000   0.340099
   37  O  3  S    0.000000   0.030475   0.052046   0.000000  -0.506900
   38  O  3  X    0.000000   0.009244   0.012667   0.000000  -0.106577
   39  O  3  Y   -0.027550   0.000000   0.000000   0.027506   0.000000
   40  O  3  Z    0.000000  -0.027529   0.027864   0.000000  -0.004658
   41  O  3  X    0.000000  -0.023253  -0.028644   0.000000   0.311699
   42  O  3  Y    0.050392   0.000000   0.000000  -0.046553   0.000000
   43  O  3  Z    0.000000   0.049961  -0.047325   0.000000   0.018295
   44  O  3 XX    0.000000   0.136612  -0.016147   0.000000  -0.702029
   45  O  3 YY    0.000000   0.145507  -0.104682   0.000000   0.341851
   46  O  3 ZZ    0.000000  -0.282119   0.120828   0.000000   0.360177
   47  O  3 XY   -0.654321   0.000000   0.000000   0.695384   0.000000
   48  O  3 XZ    0.000000  -0.651591   0.695185   0.000000  -0.017327
   49  O  3 YZ   -0.275623   0.000000   0.000000   0.130436   0.000000

                     46
                    2.4572
                     A1  
    1  S  1  S   -0.001101
    2  S  1  S   -0.159806
    3  S  1  S   -0.216834
    4  S  1  S    0.841301
    5  S  1  X    0.000000
    6  S  1  Y    0.000000
    7  S  1  Z   -0.010284
    8  S  1  X    0.000000
    9  S  1  Y    0.000000
   10  S  1  Z    0.036346
   11  S  1  X    0.000000
   12  S  1  Y    0.000000
   13  S  1  Z    0.032387
   14  S  1 XX    0.622499
   15  S  1 YY   -0.314010
   16  S  1 ZZ   -0.308489
   17  S  1 XY    0.000000
   18  S  1 XZ    0.000000
   19  S  1 YZ    0.000000
   20  O  2  S    0.008415
   21  O  2  S    0.407925
   22  O  2  S   -0.623149
   23  O  2  X    0.094270
   24  O  2  Y    0.000000
   25  O  2  Z   -0.010160
   26  O  2  X   -0.431007
   27  O  2  Y    0.000000
   28  O  2  Z    0.041269
   29  O  2 XX   -0.699699
   30  O  2 YY    0.356590
   31  O  2 ZZ    0.343109
   32  O  2 XY    0.000000
   33  O  2 XZ    0.143685
   34  O  2 YZ    0.000000
   35  O  3  S    0.008415
   36  O  3  S    0.407925
   37  O  3  S   -0.623149
   38  O  3  X   -0.094270
   39  O  3  Y    0.000000
   40  O  3  Z   -0.010160
   41  O  3  X    0.431007
   42  O  3  Y    0.000000
   43  O  3  Z    0.041269
   44  O  3 XX   -0.699699
   45  O  3 YY    0.356590
   46  O  3 ZZ    0.343109
   47  O  3 XY    0.000000
   48  O  3 XZ   -0.143685
   49  O  3 YZ    0.000000
 ...... END OF RHF CALCULATION ......
 STEP CPU TIME =     1.82 TOTAL CPU TIME =        2.0 (    0.0 MIN)
 TOTAL WALL CLOCK TIME=        2.0 SECONDS, CPU UTILIZATION IS  99.50%

     ---------------------------------------------------------------------
     PROPERTIES FOR THE PBE      DFT FUNCTIONAL (RHF  TYPE) DENSITY MATRIX
     ---------------------------------------------------------------------

          -----------------
          ENERGY COMPONENTS
          -----------------

         WAVEFUNCTION NORMALIZATION =       1.0000000000

                ONE ELECTRON ENERGY =    -915.1434483312
                TWO ELECTRON ENERGY =     834.8972737749
           NUCLEAR REPULSION ENERGY =      80.2461745564
                                      ------------------
                       TOTAL ENERGY =       0.0000000000

 ELECTRON-ELECTRON POTENTIAL ENERGY =     834.8972737749
  NUCLEUS-ELECTRON POTENTIAL ENERGY =   -1461.8143756821
   NUCLEUS-NUCLEUS POTENTIAL ENERGY =      80.2461745564
                                      ------------------
             TOTAL POTENTIAL ENERGY =    -546.6709273508
               TOTAL KINETIC ENERGY =     546.6709273508
                 VIRIAL RATIO (V/T) =       1.0000000000

          ---------------------------------------
          MULLIKEN AND LOWDIN POPULATION ANALYSES
          ---------------------------------------

     ATOMIC MULLIKEN POPULATION IN EACH MOLECULAR ORBITAL

                      1          2          3          4          5

                  2.000000   2.000000   2.000000   2.000000   2.000000

    1             1.999999   0.000978   0.000238   2.000022   1.999974
    2             0.000000   0.999511   0.999881  -0.000011   0.000013
    3             0.000000   0.999511   0.999881  -0.000011   0.000013

                      6          7          8          9         10

                  2.000000   2.000000   2.000000   2.000000   2.000000

    1             2.000001   2.000000   0.416567   0.124225   1.443239
    2            -0.000001   0.000000   0.791716   0.937887   0.278380
    3            -0.000001   0.000000   0.791716   0.937887   0.278380

                     11         12         13         14         15

                  2.000000   2.000000   2.000000   2.000000   2.000000

    1             0.651783   1.199646   1.201081   0.025055   0.028771
    2             0.674109   0.400177   0.399459   0.987472   0.985614
    3             0.674109   0.400177   0.399459   0.987472   0.985614

                     16

                  2.000000

    1             0.241021
    2             0.879489
    3             0.879489

               ----- POPULATIONS IN EACH AO -----
                             MULLIKEN      LOWDIN
              1  S  1  S      2.00020     1.99620
              2  S  1  S      2.01118     1.97689
              3  S  1  S      1.04475     0.68236
              4  S  1  S      0.93991     0.58321
              5  S  1  X      1.99617     1.95210
              6  S  1  Y      1.99633     1.95601
              7  S  1  Z      1.99636     1.95628
              8  S  1  X      0.61647     0.56901
              9  S  1  Y      0.67445     0.66066
             10  S  1  Z      0.68119     0.66710
             11  S  1  X      0.16722     0.34098
             12  S  1  Y      0.52866     0.57197
             13  S  1  Z      0.52612     0.57077
             14  S  1 XX      0.02570     0.25352
             15  S  1 YY      0.07676     0.29438
             16  S  1 ZZ      0.02506     0.29342
             17  S  1 XY      0.02588     0.02888
             18  S  1 XZ      0.00021     0.03010
             19  S  1 YZ      0.00000     0.00020
             20  O  2  S      1.99803     1.98149
             21  O  2  S      0.86213     0.67584
             22  O  2  S      1.11514     0.62288
             23  O  2  X      0.94173     0.91020
             24  O  2  Y      0.83198     0.80283
             25  O  2  Z      0.87373     0.84441
             26  O  2  X      0.57305     0.63079
             27  O  2  Y      0.55429     0.58663
             28  O  2  Z      0.57734     0.60978
             29  O  2 XX      0.00088     0.21173
             30  O  2 YY      0.00263     0.21452
             31  O  2 ZZ      0.00136     0.21349
             32  O  2 XY      0.00139     0.00166
             33  O  2 XZ      0.00001     0.00171
             34  O  2 YZ      0.00000     0.00001
             35  O  3  S      1.99803     1.98149
             36  O  3  S      0.86213     0.67584
             37  O  3  S      1.11514     0.62288
             38  O  3  X      0.94173     0.91020
             39  O  3  Y      0.83198     0.80283
             40  O  3  Z      0.87373     0.84441
             41  O  3  X      0.57305     0.63079
             42  O  3  Y      0.55429     0.58663
             43  O  3  Z      0.57734     0.60978
             44  O  3 XX      0.00088     0.21173
             45  O  3 YY      0.00263     0.21452
             46  O  3 ZZ      0.00136     0.21349
             47  O  3 XY      0.00139     0.00166
             48  O  3 XZ      0.00001     0.00171
             49  O  3 YZ      0.00000     0.00001

          ----- MULLIKEN ATOMIC OVERLAP POPULATIONS -----
          (OFF-DIAGONAL ELEMENTS NEED TO BE MULTIPLIED BY 2)

             1           2           3

    1   15.0460145
    2    0.1432937   8.1879687
    3    0.1432937   0.0024365   8.1879687

          TOTAL MULLIKEN AND LOWDIN ATOMIC POPULATIONS
       ATOM         MULL.POP.    CHARGE          LOW.POP.     CHARGE
    1 S            15.332602    0.667398        15.384050    0.615950
    2 O             8.333699   -0.333699         8.307975   -0.307975
    3 O             8.333699   -0.333699         8.307975   -0.307975

          MULLIKEN SPHERICAL HARMONIC POPULATIONS
       ATOM           S       P       D      F      G      H      I    TOTAL
    1 S             6.00    9.18    0.15   0.00   0.00   0.00   0.00   15.33
    2 O             3.98    4.35    0.01   0.00   0.00   0.00   0.00    8.33
    3 O             3.98    4.35    0.01   0.00   0.00   0.00   0.00    8.33

          -------------------------------
          BOND ORDER AND VALENCE ANALYSIS     BOND ORDER THRESHOLD=0.050
          -------------------------------

                   BOND                       BOND                       BOND
  ATOM PAIR DIST  ORDER      ATOM PAIR DIST  ORDER      ATOM PAIR DIST  ORDER
    1   2  1.900  1.535        1   3  1.900  1.535        2   3  3.786  0.775

                       TOTAL       BONDED        FREE
      ATOM            VALENCE     VALENCE     VALENCE
    1 S                 3.070       3.070       0.000
    2 O                 2.311       2.311       0.000
    3 O                 2.311       2.311       0.000

          ---------------------
          ELECTROSTATIC MOMENTS
          ---------------------

 POINT   1           X           Y           Z (BOHR)    CHARGE
                 0.000000    0.000000    0.000000        0.00 (A.U.)
         DX          DY          DZ         /D/  (DEBYE)
     0.000000    0.000000   -0.341767    0.341767
 ...... END OF PROPERTY EVALUATION ......
 STEP CPU TIME =     0.01 TOTAL CPU TIME =        2.0 (    0.0 MIN)
 TOTAL WALL CLOCK TIME=        2.0 SECONDS, CPU UTILIZATION IS  99.50%
               580000  WORDS OF DYNAMIC MEMORY USED
 EXECUTION OF GAMESS TERMINATED NORMALLY Thu Feb 26 00:22:25 2015
 DDI: 263624 bytes (0.3 MB / 0 MWords) used by master data server.

 ----------------------------------------
 CPU timing information for all processes
 ========================================
 0: 1.982 + 0.29 = 2.12
 ----------------------------------------
 ddikick.x: exited gracefully.
----- accounting info -----
Files used on the master node dftfe.crc.nd.edu were:
-rw-r--r-- 1 pmehta1 campus   37475 Feb 26 00:22 /tmp/gamess.dat
-rw-r--r-- 1 pmehta1 campus     142 Feb 26 00:22 /tmp/gamess.F05
-rw-r--r-- 1 pmehta1 campus 1800240 Feb 26 00:22 /tmp/gamess.F08
-rw-r--r-- 1 pmehta1 campus 1220440 Feb 26 00:22 /tmp/gamess.F10
Thu Feb 26 00:22:28 EST 2015
0.239u 0.182s 0:06.42 6.3%	0+0k 0+104io 0pf+0w
