----- GAMESS execution script 'rungms' -----
This job is running on host dftfe.crc.nd.edu
under operating system Linux at Thu Feb 26 00:22:35 EST 2015
Available scratch disk space (Kbyte units) at beginning of the job is
Filesystem     1K-blocks     Used Available Use% Mounted on
/dev/sda2      147771864 22818512 117446920  17% /
GAMESS temporary binary files will be written to /tmp
GAMESS supplementary output files will be written to /tmp
Copying input file gamess.inp to your run's scratch directory...

 Distributed Data Interface kickoff program.
 Initiating 1 compute processes on 1 nodes to run the following command:
 /opt/crc/gamess/2012R1/gamess/gamess.00.x gamess 

          ******************************************************
          *         GAMESS VERSION =  1 MAY 2012 (R1)          *
          *             FROM IOWA STATE UNIVERSITY             *
          * M.W.SCHMIDT, K.K.BALDRIDGE, J.A.BOATZ, S.T.ELBERT, *
          *   M.S.GORDON, J.H.JENSEN, S.KOSEKI, N.MATSUNAGA,   *
          *          K.A.NGUYEN, S.J.SU, T.L.WINDUS,           *
          *       TOGETHER WITH M.DUPUIS, J.A.MONTGOMERY       *
          *         J.COMPUT.CHEM.  14, 1347-1363(1993)        *
          **************** 64 BIT LINUX VERSION ****************

  SINCE 1993, STUDENTS AND POSTDOCS WORKING AT IOWA STATE UNIVERSITY
  AND ALSO IN THEIR VARIOUS JOBS AFTER LEAVING ISU HAVE MADE IMPORTANT
  CONTRIBUTIONS TO THE CODE:
     IVANA ADAMOVIC, CHRISTINE AIKENS, YURI ALEXEEV, POOJA ARORA,
     ANDREY ASADCHEV, ROB BELL, PRADIPTA BANDYOPADHYAY, JONATHAN BENTZ,
     BRETT BODE, GALINA CHABAN, WEI CHEN, CHEOL HO CHOI, PAUL DAY,
     ALBERT DEFUSCO, TIM DUDLEY, DMITRI FEDOROV, GRAHAM FLETCHER,
     MARK FREITAG, KURT GLAESEMANN, DAN KEMP, GRANT MERRILL,
     NORIYUKI MINEZAWA, JONATHAN MULLIN, TAKESHI NAGATA,
     SEAN NEDD, HEATHER NETZLOFF, BOSILJKA NJEGIC, RYAN OLSON, MIKE PAK,
     JIM SHOEMAKER, LYUDMILA SLIPCHENKO, SAROM SOK, JIE SONG,
     TETSUYA TAKETSUGU, SIMON WEBB, SOOHAENG YOO, FEDERICO ZAHARIEV

  ADDITIONAL CODE HAS BEEN PROVIDED BY COLLABORATORS IN OTHER GROUPS:
     IOWA STATE UNIVERSITY:
          JOE IVANIC, LAIMUTIS BYTAUTAS, KLAUS RUEDENBERG
     UNIVERSITY OF TOKYO: KIMIHIKO HIRAO, TAKAHITO NAKAJIMA,
          TAKAO TSUNEDA, MUNEAKI KAMIYA, SUSUMU YANAGISAWA,
          KIYOSHI YAGI, MAHITO CHIBA, SEIKEN TOKURA, NAOAKI KAWAKAMI
     UNIVERSITY OF AARHUS: FRANK JENSEN
     UNIVERSITY OF IOWA: VISVALDAS KAIRYS, HUI LI
     NATIONAL INST. OF STANDARDS AND TECHNOLOGY: WALT STEVENS, DAVID GARMER
     UNIVERSITY OF PISA: BENEDETTA MENNUCCI, JACOPO TOMASI
     UNIVERSITY OF MEMPHIS: HENRY KURTZ, PRAKASHAN KORAMBATH
     UNIVERSITY OF ALBERTA: TOBY ZENG, MARIUSZ KLOBUKOWSKI
     UNIVERSITY OF NEW ENGLAND: MARK SPACKMAN
     MIE UNIVERSITY: HIROAKI UMEDA
     MICHIGAN STATE UNIVERSITY:
          KAROL KOWALSKI, MARTA WLOCH, JEFFREY GOUR, JESSE LUTZ, PIOTR PIECUCH
     UNIVERSITY OF SILESIA: MONIKA MUSIAL, STANISLAW KUCHARSKI
     FACULTES UNIVERSITAIRES NOTRE-DAME DE LA PAIX:
          OLIVIER QUINET, BENOIT CHAMPAGNE
     UNIVERSITY OF CALIFORNIA - SANTA BARBARA: BERNARD KIRTMAN
     INSTITUTE FOR MOLECULAR SCIENCE:
          KAZUYA ISHIMURA, MICHIO KATOUDA, AND SHIGERU NAGASE
     UNIVERSITY OF NOTRE DAME: DAN CHIPMAN
     KYUSHU UNIVERSITY:
          HARUYUKI NAKANO,
          FENG LONG GU, JACEK KORCHOWIEC, MARCIN MAKOWSKI, AND YURIKO AOKI,
          HIROTOSHI MORI AND EISAKU MIYOSHI
     PENNSYLVANIA STATE UNIVERSITY:
          TZVETELIN IORDANOV, CHET SWALINA, JONATHAN SKONE,
          SHARON HAMMES-SCHIFFER
     WASEDA UNIVERSITY:
          MASATO KOBAYASHI, TOMOKO AKAMA, TSUGUKI TOUMA,
          TAKESHI YOSHIKAWA, YASUHIRO IKABATA, HIROMI NAKAI
     UNIVERSITY OF NEBRASKA:
          PEIFENG SU, DEJUN SI, NANDUN THELLAMUREGE, YALI WANG, HUI LI
     UNIVERSITY OF ZURICH:
          ROBERTO PEVERATI, KIM BALDRIDGE
     N. COPERNICUS UNIVERSITY AND JACKSON STATE UNIVERSITY:
          MARIA BARYSZ

 EXECUTION OF GAMESS BEGUN Thu Feb 26 00:22:35 2015

            ECHO OF THE FIRST FEW INPUT CARDS -
 INPUT CARD> $BASIS GBASIS=PC1 $END                                                         
 INPUT CARD> $CONTRL COORD=ZMT ISPHER=1 RUNTYP=ENERGY DFTTYP=PBE $END                       
 INPUT CARD>                                                                                
 INPUT CARD> $DATA                                                                          
 INPUT CARD>Title                                                                           
 INPUT CARD>Cnv 2                                                                           
 INPUT CARD>                                                                                
 INPUT CARD>S                                                                               
 INPUT CARD>O 1 2.00                                                                        
 INPUT CARD>O 1 2.00 2 100.0                                                                
 INPUT CARD> $END                                                                           
    1000000 WORDS OF MEMORY AVAILABLE

     BASIS OPTIONS
     -------------
     GBASIS=PC1          IGAUSS=       0      POLAR=NONE    
     NDFUNC=       0     NFFUNC=       0     DIFFSP=       F
     NPFUNC=       0      DIFFS=       F     BASNAM=        


     RUN TITLE
     ---------
 Title                                                                           

 THE POINT GROUP OF THE MOLECULE IS CNV     
 THE ORDER OF THE PRINCIPAL AXIS IS     2

 YOUR FULLY SUBSTITUTED Z-MATRIX IS
 S   
 O      1   2.0000000
 O      1   2.0000000  2  100.0000

 THE MOMENTS OF INERTIA ARE (AMU-ANGSTROM**2)
 IXX=    26.428   IYY=    75.090   IZZ=   101.517

 ATOM      ATOMIC                      COORDINATES (BOHR)
           CHARGE         X                   Y                   Z
 S          16.0     0.0000000000        0.0000000000       -1.2150295387
 O           8.0    -2.8952281838        0.0000000000        1.2143553625
 O           8.0     2.8952281838        0.0000000000        1.2143553625

          INTERNUCLEAR DISTANCES (ANGS.)
          ------------------------------

                1 S          2 O          3 O     

   1 S       0.0000000    2.0000000 *  2.0000000 *
   2 O       2.0000000 *  0.0000000    3.0641778  
   3 O       2.0000000 *  3.0641778    0.0000000  

  * ... LESS THAN  3.000


     ATOMIC BASIS SET
     ----------------
 THE CONTRACTED PRIMITIVE FUNCTIONS HAVE BEEN UNNORMALIZED
 THE CONTRACTED BASIS FUNCTIONS ARE NOW NORMALIZED TO UNITY

  SHELL TYPE  PRIMITIVE        EXPONENT          CONTRACTION COEFFICIENT(S)

 S         

      1   S       1         55510.0000000    0.000587229760
      1   S       2          8326.7000000    0.004532413947
      1   S       3          1895.6000000    0.023265261648
      1   S       4           536.7700000    0.089696133027
      1   S       5           174.6700000    0.254098332277
      1   S       6            62.5780000    0.438665087637
      1   S       7            23.5730000    0.314547135094
      1   S       8             5.8908000    0.032727897102

      2   S       9          8326.7000000   -0.000019755715
      2   S      10          1895.6000000   -0.000043822381
      2   S      11           536.7700000   -0.001730264906
      2   S      12           174.6700000   -0.009381263460
      2   S      13            62.5780000   -0.064050766303
      2   S      14            23.5730000   -0.082478179196
      2   S      15             5.8908000    0.478342956889
      2   S      16             2.1852000    0.626896670208

      3   S      17          1895.6000000    0.000016227260
      3   S      18           536.7700000    0.000191135619
      3   S      19           174.6700000    0.001952069674
      3   S      20            62.5780000    0.010578701087
      3   S      21            23.5730000    0.022164934551
      3   S      22             5.8908000   -0.184968323118
      3   S      23             2.1852000   -0.480920750976
      3   S      24             0.4528200    1.243822243872

      4   S      25             0.1620200    1.000000000000

      5   P      26           395.4500000    0.004642761329
      5   P      27            92.8340000    0.036023396489
      5   P      28            29.2660000    0.149058869978
      5   P      29            10.5950000    0.360033266263
      5   P      30             4.0272000    0.455756476221
      5   P      31             1.5484000    0.206167664178

      6   P      32            92.8340000    0.000169901442
      6   P      33            29.2660000   -0.002541839934
      6   P      34            10.5950000   -0.007867614595
      6   P      35             4.0272000   -0.037231009184
      6   P      36             1.5484000    0.161417246830
      6   P      37             0.4613400    0.902230419976

      7   P      38             0.1313100    1.000000000000

      8   D      39             0.5500000    1.000000000000

 O         

     15   S      40          2306.7000000    0.005424388755
     15   S      41           347.1500000    0.040474749465
     15   S      42            78.8900000    0.180219634554
     15   S      43            21.8760000    0.462370311787
     15   S      44             6.6646000    0.454888396263

     16   S      45           347.1500000   -0.000655003786
     16   S      46            78.8900000   -0.005362052952
     16   S      47            21.8760000   -0.074902158894
     16   S      48             6.6646000   -0.181442579655
     16   S      49             1.0669000    1.102006874042

     17   S      50             0.3070000    1.000000000000

     18   P      51            17.0220000    0.068979967443
     18   P      52             3.6838000    0.351985516325
     18   P      53             0.9923400    0.724036547822

     19   P      54             0.2448700    1.000000000000

     20   D      55             1.0000000    1.000000000000

 TOTAL NUMBER OF BASIS SET SHELLS             =   20
 NUMBER OF CARTESIAN GAUSSIAN BASIS FUNCTIONS =   49
 NOTE: THIS RUN WILL RESTRICT THE MO VARIATION SPACE TO SPHERICAL HARMONICS.
 THE NUMBER OF ORBITALS KEPT IN THE VARIATIONAL SPACE WILL BE PRINTED LATER.
 NUMBER OF ELECTRONS                          =   32
 CHARGE OF MOLECULE                           =    0
 SPIN MULTIPLICITY                            =    1
 NUMBER OF OCCUPIED ORBITALS (ALPHA)          =   16
 NUMBER OF OCCUPIED ORBITALS (BETA )          =   16
 TOTAL NUMBER OF ATOMS                        =    3
 THE NUCLEAR REPULSION ENERGY IS       78.7873573188

     LEBEDEV GRID-BASED DFT OPTIONS
     ------------------------------
     DFTTYP=PBE     
     NRAD  =      96     NLEB  =     302
     NRAD0 =      24     NLEB0 =     110
     SWOFF =    5.00E-03 (PURE SCF -> DFT)
     SWITCH=    3.00E-04 (COARSE -> TIGHT GRID)
     THRESH=    0.00E+00 GTHRE=    1.00E+00

 GRIMME'S EMPIRICAL DISPERSION CORRECTION= F

     $CONTRL OPTIONS
     ---------------
 SCFTYP=RHF          RUNTYP=ENERGY       EXETYP=RUN     
 MPLEVL=       0     CITYP =NONE         CCTYP =NONE         VBTYP =NONE    
 DFTTYP=PBE          TDDFT =NONE    
 MULT  =       1     ICHARG=       0     NZVAR =       0     COORD =ZMT     
 PP    =NONE         RELWFN=NONE         LOCAL =NONE         NUMGRD=       F
 ISPHER=       1     NOSYM =       0     MAXIT =      30     UNITS =ANGS    
 PLTORB=       F     MOLPLT=       F     AIMPAC=       F     FRIEND=        
 NPRINT=       7     IREST =       0     GEOM  =INPUT   
 NORMF =       0     NORMP =       0     ITOL  =      20     ICUT  =       9
 INTTYP=BEST         GRDTYP=BEST         QMTTOL= 1.0E-06

     $SYSTEM OPTIONS
     ---------------
  REPLICATED MEMORY=     1000000 WORDS (ON EVERY NODE).
 DISTRIBUTED MEMDDI=           0 MILLION WORDS IN AGGREGATE,
 MEMDDI DISTRIBUTED OVER   1 PROCESSORS IS           0 WORDS/PROCESSOR.
 TOTAL MEMORY REQUESTED ON EACH PROCESSOR=     1000000 WORDS.
 TIMLIM=      525600.00 MINUTES, OR     365.0 DAYS.
 PARALL= F  BALTYP=  DLB     KDIAG=    0  COREFL= F
 MXSEQ2=     300 MXSEQ3=     150

          ----------------
          PROPERTIES INPUT
          ----------------

     MOMENTS            FIELD           POTENTIAL          DENSITY
 IEMOM =       1   IEFLD =       0   IEPOT =       0   IEDEN =       0
 WHERE =COMASS     WHERE =NUCLEI     WHERE =NUCLEI     WHERE =NUCLEI  
 OUTPUT=BOTH       OUTPUT=BOTH       OUTPUT=BOTH       OUTPUT=BOTH    
 IEMINT=       0   IEFINT=       0                     IEDINT=       0
                                                       MORB  =       0
          EXTRAPOLATION IN EFFECT
          DIIS IN EFFECT
 ORBITAL PRINTING OPTION: NPREO=     1    49     2     1

     -------------------------------
     INTEGRAL TRANSFORMATION OPTIONS
     -------------------------------
     NWORD  =            0
     CUTOFF = 1.0E-09     MPTRAN =       0
     DIRTRF =       F     AOINTS =DUP     

          ----------------------
          INTEGRAL INPUT OPTIONS
          ----------------------
 NOPK  =       1 NORDER=       0 SCHWRZ=       F

   --- ENCODED Z MATRIX ---
 COORD  TYPE   I   J   K   L   M   N
    1      1    3   1
    2      1    2   1
    3      2    2   1   3

 THE DETERMINANT OF THE G MATRIX IS 10**(    -4)

 THE DETERMINANT OF THE G MATRIX IS 10**(    -4)
 * * * WARNING * * *
 YOUR B MATRIX HAS A SMALL DETERMINANT.
 THIS SUGGESTS YOU MAY HAVE BADLY CHOSEN COORDINATES.

     ------------------------------------------
     THE POINT GROUP IS CNV, NAXIS= 2, ORDER= 4
     ------------------------------------------

 -- VARIATIONAL SPACE WILL BE RESTRICTED TO PURE SPHERICAL HARMONICS ONLY --
 AFTER EXCLUDING CONTAMINANT COMBINATIONS FROM THE CARTESIAN GAUSSIAN BASIS
 SET, THE NUMBER OF SPHERICAL HARMONICS KEPT IN THE VARIATION SPACE IS   46

     DIMENSIONS OF THE SYMMETRY SUBSPACES ARE
 A1  =   19     A2  =    5     B1  =   14     B2  =    8

 ..... DONE SETTING UP THE RUN .....
 STEP CPU TIME =     0.01 TOTAL CPU TIME =        0.0 (    0.0 MIN)
 TOTAL WALL CLOCK TIME=        0.0 SECONDS, CPU UTILIZATION IS  50.00%

          ********************
          1 ELECTRON INTEGRALS
          ********************
 ...... END OF ONE-ELECTRON INTEGRALS ......
 STEP CPU TIME =     0.01 TOTAL CPU TIME =        0.0 (    0.0 MIN)
 TOTAL WALL CLOCK TIME=        0.0 SECONDS, CPU UTILIZATION IS 100.00%

          -------------
          GUESS OPTIONS
          -------------
          GUESS =HUCKEL            NORB  =       0          NORDER=       0
          MIX   =       F          PRTMO =       F          PUNMO =       F
          TOLZ  = 1.0E-08          TOLE  = 1.0E-05
          SYMDEN=       F          PURIFY=       F

 INITIAL GUESS ORBITALS GENERATED BY HUCKEL   ROUTINE.
 HUCKEL GUESS REQUIRES     21583 WORDS.

 STATISTICS FOR GENERATION OF SYMMETRY ORBITAL -Q- MATRIX
 NUMBER OF CARTESIAN ATOMIC ORBITALS=         49
 NUMBER OF SPHERICAL CONTAMINANTS DROPPED=     3
 NUMBER OF LINEARLY DEPENDENT MOS DROPPED=     0
 TOTAL NUMBER OF MOS IN VARIATION SPACE=      46

 SYMMETRIES FOR INITIAL GUESS ORBITALS FOLLOW.   BOTH SET(S).
    16 ORBITALS ARE OCCUPIED (    7 CORE ORBITALS).
     8=?A1      9=?B1     10=?A1     11=?B1     12=B2      13=A1      14=A2  
    15=B1      16=?A1     17=B2      18=B1      19=A1      20=A1      21=A1  
    22=A1      23=A1      24=A1      25=A1      26=A1  
 ...... END OF INITIAL ORBITAL SELECTION ......
 STEP CPU TIME =     0.00 TOTAL CPU TIME =        0.0 (    0.0 MIN)
 TOTAL WALL CLOCK TIME=        0.0 SECONDS, CPU UTILIZATION IS  66.67%

                    ----------------------
                    AO INTEGRAL TECHNOLOGY
                    ----------------------
     S,P,L SHELL ROTATED AXIS INTEGRALS, REPROGRAMMED BY
        KAZUYA ISHIMURA (IMS) AND JOSE SIERRA (SYNSTAR).
     S,P,D,L SHELL ROTATED AXIS INTEGRALS PROGRAMMED BY
        KAZUYA ISHIMURA (INSTITUTE FOR MOLECULAR SCIENCE).
     S,P,D,F,G SHELL TO TOTAL QUARTET ANGULAR MOMENTUM SUM 5,
        ERIC PROGRAM BY GRAHAM FLETCHER (ELORET AND NASA ADVANCED
        SUPERCOMPUTING DIVISION, AMES RESEARCH CENTER).
     S,P,D,F,G,L SHELL GENERAL RYS QUADRATURE PROGRAMMED BY
        MICHEL DUPUIS (PACIFIC NORTHWEST NATIONAL LABORATORY).

          --------------------
          2 ELECTRON INTEGRALS
          --------------------

 THE -PK- OPTION IS OFF, THE INTEGRALS ARE NOT IN SUPERMATRIX FORM.
 STORING   15000 INTEGRALS/RECORD ON DISK, USING 12 BYTES/INTEGRAL.
 TWO ELECTRON INTEGRAL EVALUATION REQUIRES   90606 WORDS OF MEMORY.
 II,JST,KST,LST =  1  1  1  1 NREC =         1 INTLOC =    1
 II,JST,KST,LST =  2  1  1  1 NREC =         1 INTLOC =    2
 II,JST,KST,LST =  3  1  1  1 NREC =         1 INTLOC =    7
 II,JST,KST,LST =  4  1  1  1 NREC =         1 INTLOC =   22
 II,JST,KST,LST =  5  1  1  1 NREC =         1 INTLOC =   56
 II,JST,KST,LST =  6  1  1  1 NREC =         1 INTLOC =  125
 II,JST,KST,LST =  7  1  1  1 NREC =         1 INTLOC =  329
 II,JST,KST,LST =  8  1  1  1 NREC =         1 INTLOC =  776
 II,JST,KST,LST =  9  1  1  1 NREC =         1 INTLOC = 2864
 II,JST,KST,LST = 10  1  1  1 NREC =         1 INTLOC = 2864
 II,JST,KST,LST = 11  1  1  1 NREC =         1 INTLOC = 2864
 II,JST,KST,LST = 12  1  1  1 NREC =         1 INTLOC = 2864
 II,JST,KST,LST = 13  1  1  1 NREC =         1 INTLOC = 2864
 II,JST,KST,LST = 14  1  1  1 NREC =         1 INTLOC = 2864
 II,JST,KST,LST = 15  1  1  1 NREC =         1 INTLOC = 2864
 II,JST,KST,LST = 16  1  1  1 NREC =         1 INTLOC = 4684
 II,JST,KST,LST = 17  1  1  1 NREC =         1 INTLOC = 7682
 II,JST,KST,LST = 18  1  1  1 NREC =         1 INTLOC =11982
 II,JST,KST,LST = 19  1  1  1 NREC =         2 INTLOC =12946
 II,JST,KST,LST = 20  1  1  1 NREC =         4 INTLOC =13078
 TOTAL NUMBER OF NONZERO TWO-ELECTRON INTEGRALS =              159863
         11 INTEGRAL RECORDS WERE STORED ON DISK FILE  8.
  ...... END OF TWO-ELECTRON INTEGRALS .....
 STEP CPU TIME =     0.15 TOTAL CPU TIME =        0.2 (    0.0 MIN)
 TOTAL WALL CLOCK TIME=        0.2 SECONDS, CPU UTILIZATION IS  94.44%

          --------------------------
               R-PBE SCF CALCULATION
          --------------------------

     NUCLEAR ENERGY =        78.7873573188
     MAXIT =   30     NPUNCH=    2
     EXTRAP=T  DAMP=F  SHIFT=F  RSTRCT=F  DIIS=T  DEM=F  SOSCF=F
         DENSITY MATRIX CONVERGENCE THRESHOLD=  1.00E-05
     COARSE -> FINE DFT GRID SWITCH THRESHOLD=  3.00E-04 (SWITCH IN $DFT)
                   HF -> DFT SWITCH THRESHOLD=  5.00E-03 (SWOFF IN $DFT)
     MEMORY REQUIRED FOR RHF ITERS=    183108 WORDS.

 DFT CODE IS SWITCHING FROM THE FINE GRID NRAD= 96,  NLEB=  302
                      TO THE COARSE GRID NRAD0= 24, NLEB0=  110

     EXCHANGE FUNCTIONAL   =PBE       
     CORRELATION FUNCTIONAL=PBE       
     DFT THRESHOLD         =.460E-07
     GRID CHANGE THRESHOLD =.300E-03
 FOR AN EULER-MACLAURIN QUADRATURE USING  96 RADIAL POINTS:
 SMALLEST GAUSSIAN PRIMITIVE EXPONENT=        0.1313100000 OF TYPE -P-
 ON ATOM NUMBER   1 HAS RADIAL NORMALIZATION=  1.000000
  LARGEST GAUSSIAN PRIMITIVE EXPONENT=    55510.0000000000 OF TYPE -S-
 ON ATOM NUMBER   1 HAS RADIAL NORMALIZATION=  0.999999
 DFT IS SWITCHED OFF, PERFORMING PURE SCF UNTIL SWOFF THRESHOLD IS REACHED.

 ITER EX DEM     TOTAL ENERGY        E CHANGE  DENSITY CHANGE    DIIS ERROR
   1  0  0     -545.5021215308  -545.5021215308   0.889683136   0.874721882
   2  1  0     -545.0021662568     0.4999552739   1.036881250   0.856754217
   3  2  0     -543.7303539350     1.2718123219   1.755241387   0.852703768
   4  3  0     -535.7849338191     7.9454201159   1.780432411   2.486766343
   5  0  0     -536.3703628926    -0.5854290735   0.830045980   1.290696071
   6  1  0     -545.2763573380    -8.9059944454   1.290853682   0.551772602
   7  2  0     -542.0750674343     3.2012899037   1.368787849   1.509508788
   8  3  0     -541.2728447393     0.8022226950   3.636555740   1.082993626
   9  0  0     -525.1120900833    16.1607546559   3.375080422   1.796783057
  10  1  0     -545.0287287586   -19.9166386752   1.356475853   0.540786918
  11  2  0     -541.1491486534     3.8795801052   1.402654005   1.690187325
  12  3  0     -540.6927104537     0.4564381997   3.701796918   1.131863511
  13  0  0     -523.7525531955    16.9401572582   3.445467557   2.115411484
  14  1  0     -544.8358929930   -21.0833397975   1.406006489   0.552078631
  15  2  0     -540.3477253993     4.4881675938   1.453713830   1.859300716
  16  3  0     -540.1984072022     0.1493181971   3.749533808   1.169711531
  17  0  0     -522.5886705625    17.6097366397   3.502973094   2.398690970
  18  1  0     -544.6929804781   -22.1043099156   1.451886547   0.559434177
  19  2  0     -539.6922089117     5.0007715664   1.492490514   1.986901439
  20  3  0     -539.7909126884    -0.0987037768   3.785051065   1.193610809
  21  0  0     -521.5622718530    18.2286408354   3.549951927   2.619338318
  22  1  0     -544.5830738270   -23.0208019740   1.493266995   0.564927397
  23  2  0     -539.1293012059     5.4537726211   1.523390066   2.086171827
  24  3  0     -539.4326274779    -0.3033262720   3.814196237   1.207476759
  25  0  0     -518.5248907644    20.9077367135   3.637630452   2.881551020
  26  1  0     -544.4679561182   -25.9430653538   1.553597038   0.557776580
  27  2  0     -538.5738231621     5.8941329561   1.555051262   2.186767335
  28  3  0     -539.0663835047    -0.4925603426   3.849572672   1.213864095
  29  0  0     -517.3179829420    21.7484005627   3.687069700   3.011590499
  30  1  0     -544.3848550731   -27.0668721311   1.606442676   0.561291626

 SCF IS UNCONVERGED, TOO MANY ITERATIONS
     TIME TO FORM FOCK OPERATORS=       0.1 SECONDS (       0.0 SEC/ITER)
     TIME TO SOLVE SCF EQUATIONS=       0.0 SECONDS (       0.0 SEC/ITER)

 FINAL R-PBE ENERGY IS        0.0000000000 AFTER  30 ITERATIONS

          ------------
          EIGENVECTORS
          ------------

                      1          2          3          4          5
                  -93.5631   -19.4340   -19.4340   -10.3662    -8.0607
                     A1         A1         B1         A1         B2  
    1  S  1  S    1.003132  -0.000073   0.000000  -0.276280   0.000000
    2  S  1  S   -0.010479  -0.000871   0.000000   1.038701   0.000000
    3  S  1  S    0.002699  -0.001884   0.000000   0.013043   0.000000
    4  S  1  S   -0.001629   0.004529   0.000000  -0.000979   0.000000
    5  S  1  X    0.000000   0.000000   0.000076   0.000000   0.000000
    6  S  1  Y    0.000000   0.000000   0.000000   0.000000   1.002467
    7  S  1  Z   -0.000216  -0.000056   0.000000  -0.035418   0.000000
    8  S  1  X    0.000000   0.000000  -0.000161   0.000000   0.000000
    9  S  1  Y    0.000000   0.000000   0.000000   0.000000  -0.008378
   10  S  1  Z    0.000127   0.000053   0.000000  -0.002716   0.000000
   11  S  1  X    0.000000   0.000000  -0.002173   0.000000   0.000000
   12  S  1  Y    0.000000   0.000000   0.000000   0.000000   0.004837
   13  S  1  Z   -0.000254   0.002443   0.000000   0.001245   0.000000
   14  S  1 XX   -0.000030   0.000536   0.000000  -0.000101   0.000000
   15  S  1 YY    0.000051  -0.000762   0.000000   0.000031   0.000000
   16  S  1 ZZ   -0.000020   0.000226   0.000000   0.000070   0.000000
   17  S  1 XY    0.000000   0.000000   0.000000   0.000000   0.000000
   18  S  1 XZ    0.000000   0.000000  -0.000980   0.000000   0.000000
   19  S  1 YZ    0.000000   0.000000   0.000000   0.000000  -0.002372
   20  O  2  S   -0.000008   0.703294   0.703270  -0.000003   0.000000
   21  O  2  S   -0.000076   0.022237   0.021952   0.000105   0.000000
   22  O  2  S    0.000267  -0.006836  -0.006111  -0.000284   0.000000
   23  O  2  X    0.000010   0.000777   0.000709  -0.000020   0.000000
   24  O  2  Y    0.000000   0.000000   0.000000   0.000000  -0.000003
   25  O  2  Z   -0.000018  -0.000847  -0.000884   0.000051   0.000000
   26  O  2  X    0.000092  -0.001588  -0.000930  -0.000059   0.000000
   27  O  2  Y    0.000000   0.000000   0.000000   0.000000  -0.000338
   28  O  2  Z   -0.000032   0.001068   0.001132  -0.000122   0.000000
   29  O  2 XX   -0.000002  -0.000132  -0.000012  -0.000041   0.000000
   30  O  2 YY    0.000010   0.000095   0.000067   0.000032   0.000000
   31  O  2 ZZ   -0.000009   0.000037  -0.000056   0.000009   0.000000
   32  O  2 XY    0.000000   0.000000   0.000000   0.000000   0.000007
   33  O  2 XZ    0.000018   0.000161   0.000120   0.000050   0.000000
   34  O  2 YZ    0.000000   0.000000   0.000000   0.000000   0.000002
   35  O  3  S   -0.000008   0.703294  -0.703270  -0.000003   0.000000
   36  O  3  S   -0.000076   0.022237  -0.021952   0.000105   0.000000
   37  O  3  S    0.000267  -0.006836   0.006111  -0.000284   0.000000
   38  O  3  X   -0.000010  -0.000777   0.000709   0.000020   0.000000
   39  O  3  Y    0.000000   0.000000   0.000000   0.000000  -0.000003
   40  O  3  Z   -0.000018  -0.000847   0.000884   0.000051   0.000000
   41  O  3  X   -0.000092   0.001588  -0.000930   0.000059   0.000000
   42  O  3  Y    0.000000   0.000000   0.000000   0.000000  -0.000338
   43  O  3  Z   -0.000032   0.001068  -0.001132  -0.000122   0.000000
   44  O  3 XX   -0.000002  -0.000132   0.000012  -0.000041   0.000000
   45  O  3 YY    0.000010   0.000095  -0.000067   0.000032   0.000000
   46  O  3 ZZ   -0.000009   0.000037   0.000056   0.000009   0.000000
   47  O  3 XY    0.000000   0.000000   0.000000   0.000000  -0.000007
   48  O  3 XZ   -0.000018  -0.000161   0.000120  -0.000050   0.000000
   49  O  3 YZ    0.000000   0.000000   0.000000   0.000000   0.000002

                      6          7          8          9         10
                   -8.0571    -8.0548    -1.6077    -0.9114    -0.8984
                     B1         A1         A1         B1         A1  
    1  S  1  S    0.000000  -0.010316   0.093678   0.000000   0.000392
    2  S  1  S    0.000000   0.037632  -0.203368   0.000000   0.001016
    3  S  1  S    0.000000  -0.004699   0.699017   0.000000   0.004207
    4  S  1  S    0.000000   0.001788   0.353545   0.000000  -0.035830
    5  S  1  X    1.002815   0.000000   0.000000  -0.244636   0.000000
    6  S  1  Y    0.000000   0.000000   0.000000   0.000000   0.000000
    7  S  1  Z    0.000000   1.002142   0.040183   0.000000  -0.255231
    8  S  1  X   -0.009509   0.000000   0.000000   0.647433   0.000000
    9  S  1  Y    0.000000   0.000000   0.000000   0.000000   0.000000
   10  S  1  Z    0.000000  -0.009537  -0.106078   0.000000   0.682056
   11  S  1  X    0.004110   0.000000   0.000000   0.202631   0.000000
   12  S  1  Y    0.000000   0.000000   0.000000   0.000000   0.000000
   13  S  1  Z    0.000000   0.005092  -0.009690   0.000000   0.202537
   14  S  1 XX    0.000000   0.001236  -0.015160   0.000000   0.090367
   15  S  1 YY    0.000000   0.001575   0.007024   0.000000   0.025746
   16  S  1 ZZ    0.000000  -0.002812   0.008136   0.000000  -0.116114
   17  S  1 XY    0.000000   0.000000   0.000000   0.000000   0.000000
   18  S  1 XZ   -0.003249   0.000000   0.000000  -0.034136   0.000000
   19  S  1 YZ    0.000000   0.000000   0.000000   0.000000   0.000000
   20  O  2  S    0.000054  -0.000016  -0.009624   0.081606  -0.076680
   21  O  2  S    0.000740  -0.000242   0.016655  -0.132955   0.121812
   22  O  2  S   -0.000566  -0.000422   0.004588  -0.213042   0.209760
   23  O  2  X    0.000356  -0.000254   0.008218  -0.050528   0.062369
   24  O  2  Y    0.000000   0.000000   0.000000   0.000000   0.000000
   25  O  2  Z   -0.000225   0.000166  -0.012577   0.069939  -0.044540
   26  O  2  X   -0.001405   0.000465  -0.003264  -0.036658   0.033599
   27  O  2  Y    0.000000   0.000000   0.000000   0.000000   0.000000
   28  O  2  Z    0.000752  -0.000624   0.002451   0.049027  -0.051746
   29  O  2 XX   -0.000307   0.000216   0.000759  -0.000941   0.001143
   30  O  2 YY    0.000370  -0.000246  -0.001146   0.004930  -0.004445
   31  O  2 ZZ   -0.000063   0.000029   0.000387  -0.003990   0.003302
   32  O  2 XY    0.000000   0.000000   0.000000   0.000000   0.000000
   33  O  2 XZ    0.000632  -0.000409  -0.002126   0.008974  -0.008675
   34  O  2 YZ    0.000000   0.000000   0.000000   0.000000   0.000000
   35  O  3  S   -0.000054  -0.000016  -0.009624  -0.081606  -0.076680
   36  O  3  S   -0.000740  -0.000242   0.016655   0.132955   0.121812
   37  O  3  S    0.000566  -0.000422   0.004588   0.213042   0.209760
   38  O  3  X    0.000356   0.000254  -0.008218  -0.050528  -0.062369
   39  O  3  Y    0.000000   0.000000   0.000000   0.000000   0.000000
   40  O  3  Z    0.000225   0.000166  -0.012577  -0.069939  -0.044540
   41  O  3  X   -0.001405  -0.000465   0.003264  -0.036658  -0.033599
   42  O  3  Y    0.000000   0.000000   0.000000   0.000000   0.000000
   43  O  3  Z   -0.000752  -0.000624   0.002451  -0.049027  -0.051746
   44  O  3 XX    0.000307   0.000216   0.000759   0.000941   0.001143
   45  O  3 YY   -0.000370  -0.000246  -0.001146  -0.004930  -0.004445
   46  O  3 ZZ    0.000063   0.000029   0.000387   0.003990   0.003302
   47  O  3 XY    0.000000   0.000000   0.000000   0.000000   0.000000
   48  O  3 XZ    0.000632   0.000409   0.002126   0.008974   0.008675
   49  O  3 YZ    0.000000   0.000000   0.000000   0.000000   0.000000

                     11         12         13         14         15
                   -0.8104    -0.6039    -0.5964    -0.0924    -0.0867
                     B2         B1         A1         A1         B1  
    1  S  1  S    0.000000   0.000000   0.026978   0.027889   0.000000
    2  S  1  S    0.000000   0.000000  -0.001645   0.080949   0.000000
    3  S  1  S    0.000000   0.000000   0.289927   0.413238   0.000000
    4  S  1  S    0.000000   0.000000  -0.056708  -0.344548   0.000000
    5  S  1  X    0.000000  -0.200144   0.000000   0.000000   0.049451
    6  S  1  Y   -0.315841   0.000000   0.000000   0.000000   0.000000
    7  S  1  Z    0.000000   0.000000  -0.175182   0.074074   0.000000
    8  S  1  X    0.000000   0.570788   0.000000   0.000000  -0.218610
    9  S  1  Y    0.858125   0.000000   0.000000   0.000000   0.000000
   10  S  1  Z    0.000000   0.000000   0.493019  -0.320362   0.000000
   11  S  1  X    0.000000   0.174642   0.000000   0.000000   0.529459
   12  S  1  Y    0.263493   0.000000   0.000000   0.000000   0.000000
   13  S  1  Z    0.000000   0.000000   0.175183   0.483881   0.000000
   14  S  1 XX    0.000000   0.000000  -0.021048  -0.372852   0.000000
   15  S  1 YY    0.000000   0.000000   0.147884   0.115519   0.000000
   16  S  1 ZZ    0.000000   0.000000  -0.126836   0.257334   0.000000
   17  S  1 XY    0.000000   0.000000   0.000000   0.000000   0.000000
   18  S  1 XZ    0.000000  -0.222865   0.000000   0.000000  -0.463403
   19  S  1 YZ   -0.141470   0.000000   0.000000   0.000000   0.000000
   20  O  2  S    0.000000  -0.128670   0.134126  -0.021988   0.031696
   21  O  2  S    0.000000   0.179966  -0.193315   0.065034  -0.097093
   22  O  2  S    0.000000   0.473359  -0.477912  -0.012468   0.041065
   23  O  2  X    0.000000   0.020197   0.003832   0.073161   0.246241
   24  O  2  Y    0.030289   0.000000   0.000000   0.000000   0.000000
   25  O  2  Z    0.000000  -0.012971   0.036380   0.243233  -0.085713
   26  O  2  X    0.000000   0.030505  -0.015132   0.055457   0.336815
   27  O  2  Y    0.002729   0.000000   0.000000   0.000000   0.000000
   28  O  2  Z    0.000000  -0.044575   0.046494   0.319754  -0.179022
   29  O  2 XX    0.000000   0.000932   0.001099   0.013698   0.009058
   30  O  2 YY    0.000000  -0.002339   0.002425   0.006299  -0.011292
   31  O  2 ZZ    0.000000   0.001407  -0.003524  -0.019997   0.002234
   32  O  2 XY    0.000347   0.000000   0.000000   0.000000   0.000000
   33  O  2 XZ    0.000000  -0.005674   0.003702   0.006594  -0.024314
   34  O  2 YZ   -0.001059   0.000000   0.000000   0.000000   0.000000
   35  O  3  S    0.000000   0.128670   0.134126  -0.021988  -0.031696
   36  O  3  S    0.000000  -0.179966  -0.193315   0.065034   0.097093
   37  O  3  S    0.000000  -0.473359  -0.477912  -0.012468  -0.041065
   38  O  3  X    0.000000   0.020197  -0.003832  -0.073161   0.246241
   39  O  3  Y    0.030289   0.000000   0.000000   0.000000   0.000000
   40  O  3  Z    0.000000   0.012971   0.036380   0.243233   0.085713
   41  O  3  X    0.000000   0.030505   0.015132  -0.055457   0.336815
   42  O  3  Y    0.002729   0.000000   0.000000   0.000000   0.000000
   43  O  3  Z    0.000000   0.044575   0.046494   0.319754   0.179022
   44  O  3 XX    0.000000  -0.000932   0.001099   0.013698  -0.009058
   45  O  3 YY    0.000000   0.002339   0.002425   0.006299   0.011292
   46  O  3 ZZ    0.000000  -0.001407  -0.003524  -0.019997  -0.002234
   47  O  3 XY   -0.000347   0.000000   0.000000   0.000000   0.000000
   48  O  3 XZ    0.000000  -0.005674  -0.003702  -0.006594  -0.024314
   49  O  3 YZ   -0.001059   0.000000   0.000000   0.000000   0.000000

                     16         17         18         19         20
                   -0.0583    -0.0573    -0.0425    -0.0002     0.0266
                     A2         B2         A1         A1         B1  
    1  S  1  S    0.000000   0.000000   0.042929  -0.050661   0.000000
    2  S  1  S    0.000000   0.000000   0.116514  -0.227538   0.000000
    3  S  1  S    0.000000   0.000000   0.625406  -0.850654   0.000000
    4  S  1  S    0.000000   0.000000  -0.496047   1.106203   0.000000
    5  S  1  X    0.000000   0.000000   0.000000   0.000000  -0.101926
    6  S  1  Y    0.000000   0.071804   0.000000   0.000000   0.000000
    7  S  1  Z    0.000000   0.000000   0.088199  -0.136131   0.000000
    8  S  1  X    0.000000   0.000000   0.000000   0.000000   0.397190
    9  S  1  Y    0.000000  -0.285260   0.000000   0.000000   0.000000
   10  S  1  Z    0.000000   0.000000  -0.386710   0.550827   0.000000
   11  S  1  X    0.000000   0.000000   0.000000   0.000000  -0.317042
   12  S  1  Y    0.000000   0.251820   0.000000   0.000000   0.000000
   13  S  1  Z    0.000000   0.000000   0.696640  -0.501743   0.000000
   14  S  1 XX    0.000000   0.000000   0.089493  -0.351951   0.000000
   15  S  1 YY    0.000000   0.000000   0.305962   0.559373   0.000000
   16  S  1 ZZ    0.000000   0.000000  -0.395456  -0.207421   0.000000
   17  S  1 XY    0.495671   0.000000   0.000000   0.000000   0.000000
   18  S  1 XZ    0.000000   0.000000   0.000000   0.000000  -0.170081
   19  S  1 YZ    0.000000   0.453978   0.000000   0.000000   0.000000
   20  O  2  S    0.000000   0.000000  -0.014602  -0.014249   0.025767
   21  O  2  S    0.000000   0.000000   0.058161   0.029592  -0.032646
   22  O  2  S    0.000000   0.000000  -0.063602   0.043831  -0.149425
   23  O  2  X    0.000000   0.000000  -0.222389  -0.124491  -0.124859
   24  O  2  Y   -0.281678   0.279589   0.000000   0.000000   0.000000
   25  O  2  Z    0.000000   0.000000  -0.007361   0.107051  -0.314007
   26  O  2  X    0.000000   0.000000  -0.377826  -0.139006  -0.184219
   27  O  2  Y   -0.392575   0.358997   0.000000   0.000000   0.000000
   28  O  2  Z    0.000000   0.000000  -0.050120   0.194514  -0.361406
   29  O  2 XX    0.000000   0.000000  -0.020357  -0.000935  -0.014765
   30  O  2 YY    0.000000   0.000000   0.006322   0.011584  -0.005105
   31  O  2 ZZ    0.000000   0.000000   0.014034  -0.010649   0.019870
   32  O  2 XY   -0.016189   0.014750   0.000000   0.000000   0.000000
   33  O  2 XZ    0.000000   0.000000   0.009704   0.017667  -0.001552
   34  O  2 YZ    0.021199  -0.016589   0.000000   0.000000   0.000000
   35  O  3  S    0.000000   0.000000  -0.014602  -0.014249  -0.025767
   36  O  3  S    0.000000   0.000000   0.058161   0.029592   0.032646
   37  O  3  S    0.000000   0.000000  -0.063602   0.043831   0.149425
   38  O  3  X    0.000000   0.000000   0.222389   0.124491  -0.124859
   39  O  3  Y    0.281678   0.279589   0.000000   0.000000   0.000000
   40  O  3  Z    0.000000   0.000000  -0.007361   0.107051   0.314007
   41  O  3  X    0.000000   0.000000   0.377826   0.139006  -0.184219
   42  O  3  Y    0.392575   0.358997   0.000000   0.000000   0.000000
   43  O  3  Z    0.000000   0.000000  -0.050120   0.194514   0.361406
   44  O  3 XX    0.000000   0.000000  -0.020357  -0.000935   0.014765
   45  O  3 YY    0.000000   0.000000   0.006322   0.011584   0.005105
   46  O  3 ZZ    0.000000   0.000000   0.014034  -0.010649  -0.019870
   47  O  3 XY   -0.016189  -0.014750   0.000000   0.000000   0.000000
   48  O  3 XZ    0.000000   0.000000  -0.009704  -0.017667  -0.001552
   49  O  3 YZ   -0.021199  -0.016589   0.000000   0.000000   0.000000

                     21         22         23         24         25
                    0.1355     0.1929     0.2020     0.2271     0.2375
                     B2         A2         B1         A1         B2  
    1  S  1  S    0.000000   0.000000   0.000000   0.039336   0.000000
    2  S  1  S    0.000000   0.000000   0.000000   0.120523   0.000000
    3  S  1  S    0.000000   0.000000   0.000000   0.591269   0.000000
    4  S  1  S    0.000000   0.000000   0.000000  -0.535639   0.000000
    5  S  1  X    0.000000   0.000000   0.221357   0.000000   0.000000
    6  S  1  Y    0.224224   0.000000   0.000000   0.000000   0.085678
    7  S  1  Z    0.000000   0.000000   0.000000  -0.166614   0.000000
    8  S  1  X    0.000000   0.000000  -0.961391   0.000000   0.000000
    9  S  1  Y   -0.912126   0.000000   0.000000   0.000000  -0.434894
   10  S  1  Z    0.000000   0.000000   0.000000   0.644534   0.000000
   11  S  1  X    0.000000   0.000000   1.359961   0.000000   0.000000
   12  S  1  Y    1.014849   0.000000   0.000000   0.000000   0.810654
   13  S  1  Z    0.000000   0.000000   0.000000  -0.515011   0.000000
   14  S  1 XX    0.000000   0.000000   0.000000   0.011676   0.000000
   15  S  1 YY    0.000000   0.000000   0.000000  -0.544246   0.000000
   16  S  1 ZZ    0.000000   0.000000   0.000000   0.532570   0.000000
   17  S  1 XY    0.000000   0.869281   0.000000   0.000000   0.000000
   18  S  1 XZ    0.000000   0.000000  -0.056550   0.000000   0.000000
   19  S  1 YZ   -0.572682   0.000000   0.000000   0.000000   0.667583
   20  O  2  S    0.000000   0.000000  -0.024172  -0.008339   0.000000
   21  O  2  S    0.000000   0.000000  -0.051245  -0.028699   0.000000
   22  O  2  S    0.000000   0.000000   0.420563   0.181044   0.000000
   23  O  2  X    0.000000   0.000000  -0.212694  -0.229088   0.000000
   24  O  2  Y    0.039428   0.223596   0.000000   0.000000  -0.227443
   25  O  2  Z    0.000000   0.000000  -0.030159   0.077072   0.000000
   26  O  2  X    0.000000   0.000000  -0.151094  -0.160480   0.000000
   27  O  2  Y   -0.077677   0.259046   0.000000   0.000000  -0.349312
   28  O  2  Z    0.000000   0.000000  -0.222996   0.084400   0.000000
   29  O  2 XX    0.000000   0.000000  -0.006645   0.009089   0.000000
   30  O  2 YY    0.000000   0.000000  -0.005800  -0.003337   0.000000
   31  O  2 ZZ    0.000000   0.000000   0.012446  -0.005751   0.000000
   32  O  2 XY   -0.011700   0.000028   0.000000   0.000000  -0.004028
   33  O  2 XZ    0.000000   0.000000  -0.007097   0.001732   0.000000
   34  O  2 YZ    0.007029  -0.001707   0.000000   0.000000   0.009899
   35  O  3  S    0.000000   0.000000   0.024172  -0.008339   0.000000
   36  O  3  S    0.000000   0.000000   0.051245  -0.028699   0.000000
   37  O  3  S    0.000000   0.000000  -0.420563   0.181044   0.000000
   38  O  3  X    0.000000   0.000000  -0.212694   0.229088   0.000000
   39  O  3  Y    0.039428  -0.223596   0.000000   0.000000  -0.227443
   40  O  3  Z    0.000000   0.000000   0.030159   0.077072   0.000000
   41  O  3  X    0.000000   0.000000  -0.151094   0.160480   0.000000
   42  O  3  Y   -0.077677  -0.259046   0.000000   0.000000  -0.349312
   43  O  3  Z    0.000000   0.000000   0.222996   0.084400   0.000000
   44  O  3 XX    0.000000   0.000000   0.006645   0.009089   0.000000
   45  O  3 YY    0.000000   0.000000   0.005800  -0.003337   0.000000
   46  O  3 ZZ    0.000000   0.000000  -0.012446  -0.005751   0.000000
   47  O  3 XY    0.011700   0.000028   0.000000   0.000000   0.004028
   48  O  3 XZ    0.000000   0.000000  -0.007097  -0.001732   0.000000
   49  O  3 YZ    0.007029   0.001707   0.000000   0.000000   0.009899

                     26         27         28         29         30
                    0.2636     0.4973     0.5715     1.5502     1.5788
                     A1         B1         A1         A1         A2  
    1  S  1  S    0.003073   0.000000  -0.077918  -0.001368   0.000000
    2  S  1  S   -0.013380   0.000000  -0.445266  -0.017102   0.000000
    3  S  1  S    0.016962   0.000000  -1.435688  -0.036693   0.000000
    4  S  1  S    0.081598   0.000000   2.134718   0.095791   0.000000
    5  S  1  X    0.000000  -0.020685   0.000000   0.000000   0.000000
    6  S  1  Y    0.000000   0.000000   0.000000   0.000000   0.000000
    7  S  1  Z   -0.028357   0.000000   0.067669  -0.001742   0.000000
    8  S  1  X    0.000000  -0.035292   0.000000   0.000000   0.000000
    9  S  1  Y    0.000000   0.000000   0.000000   0.000000   0.000000
   10  S  1  Z    0.158454   0.000000  -0.402442  -0.014140   0.000000
   11  S  1  X    0.000000   0.775844   0.000000   0.000000   0.000000
   12  S  1  Y    0.000000   0.000000   0.000000   0.000000   0.000000
   13  S  1  Z   -0.281609   0.000000   1.200085   0.209099   0.000000
   14  S  1 XX    0.828171   0.000000   0.250413  -0.143258   0.000000
   15  S  1 YY   -0.230157   0.000000  -0.507222  -0.017028   0.000000
   16  S  1 ZZ   -0.598014   0.000000   0.256809   0.160286   0.000000
   17  S  1 XY    0.000000   0.000000   0.000000   0.000000  -0.135984
   18  S  1 XZ    0.000000   0.906916   0.000000   0.000000   0.000000
   19  S  1 YZ    0.000000   0.000000   0.000000   0.000000   0.000000
   20  O  2  S   -0.001772  -0.044527   0.061023   0.008968   0.000000
   21  O  2  S   -0.000647   0.046009  -0.037547  -0.082226   0.000000
   22  O  2  S    0.042383   0.323904  -0.585149   0.016812   0.000000
   23  O  2  X    0.045994   0.155048  -0.127653   0.495303   0.000000
   24  O  2  Y    0.000000   0.000000   0.000000   0.000000   0.718277
   25  O  2  Z    0.232778  -0.176649   0.056970   0.512345   0.000000
   26  O  2  X    0.061445   0.306169  -0.482642  -0.491269   0.000000
   27  O  2  Y    0.000000   0.000000   0.000000   0.000000  -0.669328
   28  O  2  Z    0.277918  -0.341536   0.215261  -0.457799   0.000000
   29  O  2 XX   -0.002565  -0.004590  -0.012288   0.011527   0.000000
   30  O  2 YY    0.002802  -0.004022   0.014724   0.003280   0.000000
   31  O  2 ZZ   -0.000237   0.008612  -0.002436  -0.014807   0.000000
   32  O  2 XY    0.000000   0.000000   0.000000   0.000000   0.009457
   33  O  2 XZ    0.000584  -0.005080   0.027376  -0.000107   0.000000
   34  O  2 YZ    0.000000   0.000000   0.000000   0.000000  -0.007383
   35  O  3  S   -0.001772   0.044527   0.061023   0.008968   0.000000
   36  O  3  S   -0.000647  -0.046009  -0.037547  -0.082226   0.000000
   37  O  3  S    0.042383  -0.323904  -0.585149   0.016812   0.000000
   38  O  3  X   -0.045994   0.155048   0.127653  -0.495303   0.000000
   39  O  3  Y    0.000000   0.000000   0.000000   0.000000  -0.718277
   40  O  3  Z    0.232778   0.176649   0.056970   0.512345   0.000000
   41  O  3  X   -0.061445   0.306169   0.482642   0.491269   0.000000
   42  O  3  Y    0.000000   0.000000   0.000000   0.000000   0.669328
   43  O  3  Z    0.277918   0.341536   0.215261  -0.457799   0.000000
   44  O  3 XX   -0.002565   0.004590  -0.012288   0.011527   0.000000
   45  O  3 YY    0.002802   0.004022   0.014724   0.003280   0.000000
   46  O  3 ZZ   -0.000237  -0.008612  -0.002436  -0.014807   0.000000
   47  O  3 XY    0.000000   0.000000   0.000000   0.000000   0.009457
   48  O  3 XZ   -0.000584  -0.005080  -0.027376   0.000107   0.000000
   49  O  3 YZ    0.000000   0.000000   0.000000   0.000000   0.007383

                     31         32         33         34         35
                    1.6008     1.6503     1.6787     1.7094     2.2255
                     B2         B1         A1         B1         B1  
    1  S  1  S    0.000000   0.000000   0.000376   0.000000   0.000000
    2  S  1  S    0.000000   0.000000  -0.090096   0.000000   0.000000
    3  S  1  S    0.000000   0.000000  -0.100195   0.000000   0.000000
    4  S  1  S    0.000000   0.000000   0.639819   0.000000   0.000000
    5  S  1  X    0.000000   0.003704   0.000000  -0.044799  -0.021596
    6  S  1  Y    0.005706   0.000000   0.000000   0.000000   0.000000
    7  S  1  Z    0.000000   0.000000  -0.037036   0.000000   0.000000
    8  S  1  X    0.000000   0.005804   0.000000   0.227543   0.046259
    9  S  1  Y   -0.052584   0.000000   0.000000   0.000000   0.000000
   10  S  1  Z    0.000000   0.000000   0.176563   0.000000   0.000000
   11  S  1  X    0.000000  -0.351305   0.000000   0.103267   0.500743
   12  S  1  Y    0.263708   0.000000   0.000000   0.000000   0.000000
   13  S  1  Z    0.000000   0.000000   0.214193   0.000000   0.000000
   14  S  1 XX    0.000000   0.000000   0.102692   0.000000   0.000000
   15  S  1 YY    0.000000   0.000000  -0.122434   0.000000   0.000000
   16  S  1 ZZ    0.000000   0.000000   0.019743   0.000000   0.000000
   17  S  1 XY    0.000000   0.000000   0.000000   0.000000   0.000000
   18  S  1 XZ    0.000000  -0.076686   0.000000   0.155989   0.297711
   19  S  1 YZ    0.125929   0.000000   0.000000   0.000000   0.000000
   20  O  2  S    0.000000   0.008902   0.023517  -0.019535   0.046871
   21  O  2  S    0.000000   0.013496  -0.086859   0.121243  -1.182102
   22  O  2  S    0.000000  -0.127168  -0.095268  -0.018817   1.276081
   23  O  2  X    0.000000  -0.287477   0.500173  -0.651785  -0.091410
   24  O  2  Y    0.718800   0.000000   0.000000   0.000000   0.000000
   25  O  2  Z    0.000000  -0.658208  -0.501154   0.280699   0.060370
   26  O  2  X    0.000000   0.231269  -0.629874   0.726250   0.238504
   27  O  2  Y   -0.709607   0.000000   0.000000   0.000000   0.000000
   28  O  2  Z    0.000000   0.717726   0.588089  -0.339672  -0.228599
   29  O  2 XX    0.000000  -0.009145   0.014630  -0.023337  -0.022429
   30  O  2 YY    0.000000  -0.004117  -0.018461   0.025209   0.048081
   31  O  2 ZZ    0.000000   0.013263   0.003831  -0.001872  -0.025652
   32  O  2 XY    0.013625   0.000000   0.000000   0.000000   0.000000
   33  O  2 XZ    0.000000  -0.017203  -0.036476   0.032380   0.075409
   34  O  2 YZ   -0.012357   0.000000   0.000000   0.000000   0.000000
   35  O  3  S    0.000000  -0.008902   0.023517   0.019535  -0.046871
   36  O  3  S    0.000000  -0.013496  -0.086859  -0.121243   1.182102
   37  O  3  S    0.000000   0.127168  -0.095268   0.018817  -1.276081
   38  O  3  X    0.000000  -0.287477  -0.500173  -0.651785  -0.091410
   39  O  3  Y    0.718800   0.000000   0.000000   0.000000   0.000000
   40  O  3  Z    0.000000   0.658208  -0.501154  -0.280699  -0.060370
   41  O  3  X    0.000000   0.231269   0.629874   0.726250   0.238504
   42  O  3  Y   -0.709607   0.000000   0.000000   0.000000   0.000000
   43  O  3  Z    0.000000  -0.717726   0.588089   0.339672   0.228599
   44  O  3 XX    0.000000   0.009145   0.014630   0.023337   0.022429
   45  O  3 YY    0.000000   0.004117  -0.018461  -0.025209  -0.048081
   46  O  3 ZZ    0.000000  -0.013263   0.003831   0.001872   0.025652
   47  O  3 XY   -0.013625   0.000000   0.000000   0.000000   0.000000
   48  O  3 XZ    0.000000  -0.017203   0.036476   0.032380   0.075409
   49  O  3 YZ   -0.012357   0.000000   0.000000   0.000000   0.000000

                     36         37         38         39         40
                    2.3331     3.0433     3.0441     3.0568     3.0675
                     A1         A2         B1         B2         A1  
    1  S  1  S    0.022078   0.000000   0.000000   0.000000  -0.002313
    2  S  1  S    0.236117   0.000000   0.000000   0.000000  -0.001609
    3  S  1  S    0.543166   0.000000   0.000000   0.000000  -0.027084
    4  S  1  S   -1.180912   0.000000   0.000000   0.000000   0.014042
    5  S  1  X    0.000000   0.000000   0.003422   0.000000   0.000000
    6  S  1  Y    0.000000   0.000000   0.000000   0.000286   0.000000
    7  S  1  Z    0.011795   0.000000   0.000000   0.000000   0.009849
    8  S  1  X    0.000000   0.000000  -0.031169   0.000000   0.000000
    9  S  1  Y    0.000000   0.000000   0.000000  -0.022080   0.000000
   10  S  1  Z    0.008242   0.000000   0.000000   0.000000  -0.048901
   11  S  1  X    0.000000   0.000000   0.111391   0.000000   0.000000
   12  S  1  Y    0.000000   0.000000   0.000000   0.094903   0.000000
   13  S  1  Z   -0.624718   0.000000   0.000000   0.000000   0.082471
   14  S  1 XX   -0.141081   0.000000   0.000000   0.000000  -0.087957
   15  S  1 YY    0.223893   0.000000   0.000000   0.000000   0.027894
   16  S  1 ZZ   -0.082812   0.000000   0.000000   0.000000   0.060063
   17  S  1 XY    0.000000  -0.074450   0.000000   0.000000   0.000000
   18  S  1 XZ    0.000000   0.000000  -0.003242   0.000000   0.000000
   19  S  1 YZ    0.000000   0.000000   0.000000   0.060817   0.000000
   20  O  2  S    0.037290   0.000000   0.000021   0.000000   0.000459
   21  O  2  S   -1.210669   0.000000  -0.040543   0.000000   0.012655
   22  O  2  S    1.436450   0.000000   0.068352   0.000000  -0.029922
   23  O  2  X   -0.109402   0.000000   0.021048   0.000000   0.002866
   24  O  2  Y    0.000000   0.025946   0.000000   0.038470   0.000000
   25  O  2  Z    0.027371   0.000000   0.030159   0.000000   0.035211
   26  O  2  X    0.408663   0.000000  -0.002289   0.000000  -0.010575
   27  O  2  Y    0.000000  -0.003782   0.000000  -0.032577   0.000000
   28  O  2  Z   -0.190387   0.000000  -0.030584   0.000000  -0.020485
   29  O  2 XX   -0.080970   0.000000  -0.565086   0.000000  -0.242789
   30  O  2 YY    0.050294   0.000000  -0.086126   0.000000  -0.452728
   31  O  2 ZZ    0.030676   0.000000   0.651211   0.000000   0.695518
   32  O  2 XY    0.000000  -0.493397   0.000000  -0.334857   0.000000
   33  O  2 XZ    0.084523   0.000000  -0.031022   0.000000  -0.065992
   34  O  2 YZ    0.000000   0.507150   0.000000   0.625470   0.000000
   35  O  3  S    0.037290   0.000000  -0.000021   0.000000   0.000459
   36  O  3  S   -1.210669   0.000000   0.040543   0.000000   0.012655
   37  O  3  S    1.436450   0.000000  -0.068352   0.000000  -0.029922
   38  O  3  X    0.109402   0.000000   0.021048   0.000000  -0.002866
   39  O  3  Y    0.000000  -0.025946   0.000000   0.038470   0.000000
   40  O  3  Z    0.027371   0.000000  -0.030159   0.000000   0.035211
   41  O  3  X   -0.408663   0.000000  -0.002289   0.000000   0.010575
   42  O  3  Y    0.000000   0.003782   0.000000  -0.032577   0.000000
   43  O  3  Z   -0.190387   0.000000   0.030584   0.000000  -0.020485
   44  O  3 XX   -0.080970   0.000000   0.565086   0.000000  -0.242789
   45  O  3 YY    0.050294   0.000000   0.086126   0.000000  -0.452728
   46  O  3 ZZ    0.030676   0.000000  -0.651211   0.000000   0.695518
   47  O  3 XY    0.000000  -0.493397   0.000000   0.334857   0.000000
   48  O  3 XZ   -0.084523   0.000000  -0.031022   0.000000   0.065992
   49  O  3 YZ    0.000000  -0.507150   0.000000   0.625470   0.000000

                     41         42         43         44         45
                    3.0735     3.0745     3.0758     3.0763     3.1629
                     A2         B1         B2         A1         A1  
    1  S  1  S    0.000000   0.000000   0.000000   0.001294  -0.005290
    2  S  1  S    0.000000   0.000000   0.000000  -0.002631  -0.122874
    3  S  1  S    0.000000   0.000000   0.000000   0.010649  -0.216811
    4  S  1  S    0.000000   0.000000   0.000000   0.010189   0.592720
    5  S  1  X    0.000000   0.002556   0.000000   0.000000   0.000000
    6  S  1  Y    0.000000   0.000000   0.000048   0.000000   0.000000
    7  S  1  Z    0.000000   0.000000   0.000000  -0.006940  -0.037320
    8  S  1  X    0.000000  -0.012706   0.000000   0.000000   0.000000
    9  S  1  Y    0.000000   0.000000   0.008427   0.000000   0.000000
   10  S  1  Z    0.000000   0.000000   0.000000   0.033620   0.099175
   11  S  1  X    0.000000   0.014449   0.000000   0.000000   0.000000
   12  S  1  Y    0.000000   0.000000  -0.038979   0.000000   0.000000
   13  S  1  Z    0.000000   0.000000   0.000000  -0.045531   0.282099
   14  S  1 XX    0.000000   0.000000   0.000000   0.057593   0.101446
   15  S  1 YY    0.000000   0.000000   0.000000  -0.009898  -0.189590
   16  S  1 ZZ    0.000000   0.000000   0.000000  -0.047694   0.088144
   17  S  1 XY    0.000258   0.000000   0.000000   0.000000   0.000000
   18  S  1 XZ    0.000000  -0.005441   0.000000   0.000000   0.000000
   19  S  1 YZ    0.000000   0.000000  -0.035394   0.000000   0.000000
   20  O  2  S    0.000000  -0.000231   0.000000  -0.000476  -0.000682
   21  O  2  S    0.000000   0.006588   0.000000   0.000732   0.313104
   22  O  2  S    0.000000  -0.004370   0.000000   0.007151  -0.456232
   23  O  2  X    0.000000   0.012038   0.000000   0.009141   0.096107
   24  O  2  Y   -0.000598   0.000000  -0.011123   0.000000   0.000000
   25  O  2  Z    0.000000   0.002257   0.000000  -0.020843  -0.051049
   26  O  2  X    0.000000  -0.018770   0.000000  -0.005452  -0.236484
   27  O  2  Y    0.004988   0.000000   0.015948   0.000000   0.000000
   28  O  2  Z    0.000000  -0.005827   0.000000   0.017804   0.142550
   29  O  2 XX    0.000000  -0.360675   0.000000   0.480218  -0.461570
   30  O  2 YY    0.000000   0.615795   0.000000  -0.430425   0.335163
   31  O  2 ZZ    0.000000  -0.255120   0.000000  -0.049792   0.126407
   32  O  2 XY    0.506904   0.000000   0.624873   0.000000   0.000000
   33  O  2 XZ    0.000000  -0.342128   0.000000   0.471721   0.528680
   34  O  2 YZ    0.492986   0.000000   0.332015   0.000000   0.000000
   35  O  3  S    0.000000   0.000231   0.000000  -0.000476  -0.000682
   36  O  3  S    0.000000  -0.006588   0.000000   0.000732   0.313104
   37  O  3  S    0.000000   0.004370   0.000000   0.007151  -0.456232
   38  O  3  X    0.000000   0.012038   0.000000  -0.009141  -0.096107
   39  O  3  Y    0.000598   0.000000  -0.011123   0.000000   0.000000
   40  O  3  Z    0.000000  -0.002257   0.000000  -0.020843  -0.051049
   41  O  3  X    0.000000  -0.018770   0.000000   0.005452   0.236484
   42  O  3  Y   -0.004988   0.000000   0.015948   0.000000   0.000000
   43  O  3  Z    0.000000   0.005827   0.000000   0.017804   0.142550
   44  O  3 XX    0.000000   0.360675   0.000000   0.480218  -0.461570
   45  O  3 YY    0.000000  -0.615795   0.000000  -0.430425   0.335163
   46  O  3 ZZ    0.000000   0.255120   0.000000  -0.049792   0.126407
   47  O  3 XY    0.506904   0.000000  -0.624873   0.000000   0.000000
   48  O  3 XZ    0.000000  -0.342128   0.000000  -0.471721  -0.528680
   49  O  3 YZ   -0.492986   0.000000   0.332015   0.000000   0.000000

                     46
                    3.1778
                     B1  
    1  S  1  S    0.000000
    2  S  1  S    0.000000
    3  S  1  S    0.000000
    4  S  1  S    0.000000
    5  S  1  X    0.048251
    6  S  1  Y    0.000000
    7  S  1  Z    0.000000
    8  S  1  X   -0.151001
    9  S  1  Y    0.000000
   10  S  1  Z    0.000000
   11  S  1  X   -0.175383
   12  S  1  Y    0.000000
   13  S  1  Z    0.000000
   14  S  1 XX    0.000000
   15  S  1 YY    0.000000
   16  S  1 ZZ    0.000000
   17  S  1 XY    0.000000
   18  S  1 XZ   -0.275284
   19  S  1 YZ    0.000000
   20  O  2  S   -0.001165
   21  O  2  S    0.219727
   22  O  2  S   -0.295364
   23  O  2  X    0.072559
   24  O  2  Y    0.000000
   25  O  2  Z   -0.067955
   26  O  2  X   -0.143292
   27  O  2  Y    0.000000
   28  O  2  Z    0.147821
   29  O  2 XX   -0.230267
   30  O  2 YY    0.340592
   31  O  2 ZZ   -0.110325
   32  O  2 XY    0.000000
   33  O  2 XZ    0.626392
   34  O  2 YZ    0.000000
   35  O  3  S    0.001165
   36  O  3  S   -0.219727
   37  O  3  S    0.295364
   38  O  3  X    0.072559
   39  O  3  Y    0.000000
   40  O  3  Z    0.067955
   41  O  3  X   -0.143292
   42  O  3  Y    0.000000
   43  O  3  Z   -0.147821
   44  O  3 XX    0.230267
   45  O  3 YY   -0.340592
   46  O  3 ZZ    0.110325
   47  O  3 XY    0.000000
   48  O  3 XZ    0.626392
   49  O  3 YZ    0.000000
 ...... END OF RHF CALCULATION ......
 STEP CPU TIME =     0.14 TOTAL CPU TIME =        0.3 (    0.0 MIN)
 TOTAL WALL CLOCK TIME=        0.3 SECONDS, CPU UTILIZATION IS  96.88%

     ---------------------------------------------------------------------
     PROPERTIES FOR THE PBE      DFT FUNCTIONAL (RHF  TYPE) DENSITY MATRIX
     ---------------------------------------------------------------------

          -----------------
          ENERGY COMPONENTS
          -----------------

         WAVEFUNCTION NORMALIZATION =       1.0000000000

                ONE ELECTRON ENERGY =    -917.3436031336
                TWO ELECTRON ENERGY =     838.5562458148
           NUCLEAR REPULSION ENERGY =      78.7873573188
                                      ------------------
                       TOTAL ENERGY =       0.0000000000

 ELECTRON-ELECTRON POTENTIAL ENERGY =     838.5562458148
  NUCLEUS-ELECTRON POTENTIAL ENERGY =   -1462.4979262709
   NUCLEUS-NUCLEUS POTENTIAL ENERGY =      78.7873573188
                                      ------------------
             TOTAL POTENTIAL ENERGY =    -545.1543231373
               TOTAL KINETIC ENERGY =     545.1543231373
                 VIRIAL RATIO (V/T) =       1.0000000000

          ---------------------------------------
          MULLIKEN AND LOWDIN POPULATION ANALYSES
          ---------------------------------------

     ATOMIC MULLIKEN POPULATION IN EACH MOLECULAR ORBITAL

                      1          2          3          4          5

                  2.000000   2.000000   2.000000   2.000000   2.000000

    1             1.999997   0.000376   0.000227   2.000004   2.000010
    2             0.000002   0.999812   0.999886  -0.000002  -0.000005
    3             0.000002   0.999812   0.999886  -0.000002  -0.000005

                      6          7          8          9         10

                  2.000000   2.000000   2.000000   2.000000   2.000000

    1             1.999811   1.999936   1.995344   1.323531   1.403673
    2             0.000095   0.000032   0.002328   0.338235   0.298164
    3             0.000095   0.000032   0.002328   0.338235   0.298164

                     11         12         13         14         15

                  2.000000   2.000000   2.000000   2.000000   2.000000

    1             1.992388   0.727191   0.625296   0.836730   0.812620
    2             0.003806   0.636404   0.687352   0.581635   0.593690
    3             0.003806   0.636404   0.687352   0.581635   0.593690

                     16

                  2.000000

    1             0.575068
    2             0.712466
    3             0.712466

               ----- POPULATIONS IN EACH AO -----
                             MULLIKEN      LOWDIN
              1  S  1  S      2.00019     1.99711
              2  S  1  S      2.00213     1.96787
              3  S  1  S      1.46982     0.90876
              4  S  1  S      0.68906     0.52462
              5  S  1  X      2.00268     1.98698
              6  S  1  Y      2.00255     1.98735
              7  S  1  Z      2.00286     1.98697
              8  S  1  X      1.56496     1.41409
              9  S  1  Y      1.55164     1.42466
             10  S  1  Z      1.53275     1.41904
             11  S  1  X      0.54698     0.66453
             12  S  1  Y      0.39849     0.52926
             13  S  1  Z      0.69389     0.77172
             14  S  1 XX      0.22309     0.45062
             15  S  1 YY      0.24756     0.34727
             16  S  1 ZZ      0.57507     0.36866
             17  S  1 XY      0.74877     0.57028
             18  S  1 XZ      0.03973     0.80970
             19  S  1 YZ      0.00000     0.04069
             20  O  2  S      1.99722     1.97940
             21  O  2  S      0.58891     0.51564
             22  O  2  S      1.29319     0.71564
             23  O  2  X      0.24203     0.24021
             24  O  2  Y      0.26870     0.27384
             25  O  2  Z      0.25418     0.25505
             26  O  2  X      0.34313     0.37341
             27  O  2  Y      0.44512     0.44727
             28  O  2  Z      0.41084     0.45101
             29  O  2 XX      0.00219     0.21632
             30  O  2 YY      0.00134     0.21651
             31  O  2 ZZ      0.00094     0.22108
             32  O  2 XY      0.00459     0.00112
             33  O  2 XZ      0.00150     0.00676
             34  O  2 YZ      0.00000     0.00165
             35  O  3  S      1.99722     1.97940
             36  O  3  S      0.58891     0.51564
             37  O  3  S      1.29319     0.71564
             38  O  3  X      0.24203     0.24021
             39  O  3  Y      0.26870     0.27384
             40  O  3  Z      0.25418     0.25505
             41  O  3  X      0.34313     0.37341
             42  O  3  Y      0.44512     0.44727
             43  O  3  Z      0.41084     0.45101
             44  O  3 XX      0.00219     0.21632
             45  O  3 YY      0.00134     0.21651
             46  O  3 ZZ      0.00094     0.22108
             47  O  3 XY      0.00459     0.00112
             48  O  3 XZ      0.00150     0.00676
             49  O  3 YZ      0.00000     0.00165

          ----- MULLIKEN ATOMIC OVERLAP POPULATIONS -----
          (OFF-DIAGONAL ELEMENTS NEED TO BE MULTIPLIED BY 2)

             1           2           3

    1   20.1470202
    2    0.0725894   5.8155322
    3    0.0725894  -0.0342212   5.8155322

          TOTAL MULLIKEN AND LOWDIN ATOMIC POPULATIONS
       ATOM         MULL.POP.    CHARGE          LOW.POP.     CHARGE
    1 S            20.292199   -4.292199        20.170188   -4.170188
    2 O             5.853900    2.146100         5.914906    2.085094
    3 O             5.853900    2.146100         5.914906    2.085094

          MULLIKEN SPHERICAL HARMONIC POPULATIONS
       ATOM           S       P       D      F      G      H      I    TOTAL
    1 S             6.16   12.30    1.83   0.00   0.00   0.00   0.00   20.29
    2 O             3.88    1.96    0.01   0.00   0.00   0.00   0.00    5.85
    3 O             3.88    1.96    0.01   0.00   0.00   0.00   0.00    5.85

          -------------------------------
          BOND ORDER AND VALENCE ANALYSIS     BOND ORDER THRESHOLD=0.050
          -------------------------------

                   BOND                       BOND                       BOND
  ATOM PAIR DIST  ORDER      ATOM PAIR DIST  ORDER      ATOM PAIR DIST  ORDER
    1   2  2.000  1.595        1   3  2.000  1.595        2   3  3.064  1.137

                       TOTAL       BONDED        FREE
      ATOM            VALENCE     VALENCE     VALENCE
    1 S                 3.191       3.191       0.000
    2 O                 2.732       2.732       0.000
    3 O                 2.732       2.732       0.000

          ---------------------
          ELECTROSTATIC MOMENTS
          ---------------------

 POINT   1           X           Y           Z (BOHR)    CHARGE
                 0.000000    0.000000    0.000000        0.00 (A.U.)
         DX          DY          DZ         /D/  (DEBYE)
     0.000000    0.000000   33.305608   33.305608
 ...... END OF PROPERTY EVALUATION ......
 STEP CPU TIME =     0.01 TOTAL CPU TIME =        0.3 (    0.0 MIN)
 TOTAL WALL CLOCK TIME=        0.3 SECONDS, CPU UTILIZATION IS 100.00%
               580000  WORDS OF DYNAMIC MEMORY USED
 EXECUTION OF GAMESS TERMINATED NORMALLY Thu Feb 26 00:22:35 2015
 DDI: 263624 bytes (0.3 MB / 0 MWords) used by master data server.

 ----------------------------------------
 CPU timing information for all processes
 ========================================
 0: 0.292 + 0.31 = 0.324
 ----------------------------------------
 ddikick.x: exited gracefully.
----- accounting info -----
Files used on the master node dftfe.crc.nd.edu were:
-rw-r--r-- 1 pmehta1 campus   37475 Feb 26 00:22 /tmp/gamess.dat
-rw-r--r-- 1 pmehta1 campus     142 Feb 26 00:22 /tmp/gamess.F05
-rw-r--r-- 1 pmehta1 campus 1980264 Feb 26 00:22 /tmp/gamess.F08
-rw-r--r-- 1 pmehta1 campus 1220440 Feb 26 00:22 /tmp/gamess.F10
Thu Feb 26 00:22:38 EST 2015
0.250u 0.169s 0:03.74 10.9%	0+0k 0+104io 0pf+0w
