----- GAMESS execution script 'rungms' -----
This job is running on host dftfe.crc.nd.edu
under operating system Linux at Thu Feb 26 00:16:04 EST 2015
Available scratch disk space (Kbyte units) at beginning of the job is
Filesystem     1K-blocks     Used Available Use% Mounted on
/dev/sda2      147771864 22812884 117452548  17% /
GAMESS temporary binary files will be written to /tmp
GAMESS supplementary output files will be written to /tmp
Copying input file gamess.inp to your run's scratch directory...

 Distributed Data Interface kickoff program.
 Initiating 1 compute processes on 1 nodes to run the following command:
 /opt/crc/gamess/2012R1/gamess/gamess.00.x gamess 

          ******************************************************
          *         GAMESS VERSION =  1 MAY 2012 (R1)          *
          *             FROM IOWA STATE UNIVERSITY             *
          * M.W.SCHMIDT, K.K.BALDRIDGE, J.A.BOATZ, S.T.ELBERT, *
          *   M.S.GORDON, J.H.JENSEN, S.KOSEKI, N.MATSUNAGA,   *
          *          K.A.NGUYEN, S.J.SU, T.L.WINDUS,           *
          *       TOGETHER WITH M.DUPUIS, J.A.MONTGOMERY       *
          *         J.COMPUT.CHEM.  14, 1347-1363(1993)        *
          **************** 64 BIT LINUX VERSION ****************

  SINCE 1993, STUDENTS AND POSTDOCS WORKING AT IOWA STATE UNIVERSITY
  AND ALSO IN THEIR VARIOUS JOBS AFTER LEAVING ISU HAVE MADE IMPORTANT
  CONTRIBUTIONS TO THE CODE:
     IVANA ADAMOVIC, CHRISTINE AIKENS, YURI ALEXEEV, POOJA ARORA,
     ANDREY ASADCHEV, ROB BELL, PRADIPTA BANDYOPADHYAY, JONATHAN BENTZ,
     BRETT BODE, GALINA CHABAN, WEI CHEN, CHEOL HO CHOI, PAUL DAY,
     ALBERT DEFUSCO, TIM DUDLEY, DMITRI FEDOROV, GRAHAM FLETCHER,
     MARK FREITAG, KURT GLAESEMANN, DAN KEMP, GRANT MERRILL,
     NORIYUKI MINEZAWA, JONATHAN MULLIN, TAKESHI NAGATA,
     SEAN NEDD, HEATHER NETZLOFF, BOSILJKA NJEGIC, RYAN OLSON, MIKE PAK,
     JIM SHOEMAKER, LYUDMILA SLIPCHENKO, SAROM SOK, JIE SONG,
     TETSUYA TAKETSUGU, SIMON WEBB, SOOHAENG YOO, FEDERICO ZAHARIEV

  ADDITIONAL CODE HAS BEEN PROVIDED BY COLLABORATORS IN OTHER GROUPS:
     IOWA STATE UNIVERSITY:
          JOE IVANIC, LAIMUTIS BYTAUTAS, KLAUS RUEDENBERG
     UNIVERSITY OF TOKYO: KIMIHIKO HIRAO, TAKAHITO NAKAJIMA,
          TAKAO TSUNEDA, MUNEAKI KAMIYA, SUSUMU YANAGISAWA,
          KIYOSHI YAGI, MAHITO CHIBA, SEIKEN TOKURA, NAOAKI KAWAKAMI
     UNIVERSITY OF AARHUS: FRANK JENSEN
     UNIVERSITY OF IOWA: VISVALDAS KAIRYS, HUI LI
     NATIONAL INST. OF STANDARDS AND TECHNOLOGY: WALT STEVENS, DAVID GARMER
     UNIVERSITY OF PISA: BENEDETTA MENNUCCI, JACOPO TOMASI
     UNIVERSITY OF MEMPHIS: HENRY KURTZ, PRAKASHAN KORAMBATH
     UNIVERSITY OF ALBERTA: TOBY ZENG, MARIUSZ KLOBUKOWSKI
     UNIVERSITY OF NEW ENGLAND: MARK SPACKMAN
     MIE UNIVERSITY: HIROAKI UMEDA
     MICHIGAN STATE UNIVERSITY:
          KAROL KOWALSKI, MARTA WLOCH, JEFFREY GOUR, JESSE LUTZ, PIOTR PIECUCH
     UNIVERSITY OF SILESIA: MONIKA MUSIAL, STANISLAW KUCHARSKI
     FACULTES UNIVERSITAIRES NOTRE-DAME DE LA PAIX:
          OLIVIER QUINET, BENOIT CHAMPAGNE
     UNIVERSITY OF CALIFORNIA - SANTA BARBARA: BERNARD KIRTMAN
     INSTITUTE FOR MOLECULAR SCIENCE:
          KAZUYA ISHIMURA, MICHIO KATOUDA, AND SHIGERU NAGASE
     UNIVERSITY OF NOTRE DAME: DAN CHIPMAN
     KYUSHU UNIVERSITY:
          HARUYUKI NAKANO,
          FENG LONG GU, JACEK KORCHOWIEC, MARCIN MAKOWSKI, AND YURIKO AOKI,
          HIROTOSHI MORI AND EISAKU MIYOSHI
     PENNSYLVANIA STATE UNIVERSITY:
          TZVETELIN IORDANOV, CHET SWALINA, JONATHAN SKONE,
          SHARON HAMMES-SCHIFFER
     WASEDA UNIVERSITY:
          MASATO KOBAYASHI, TOMOKO AKAMA, TSUGUKI TOUMA,
          TAKESHI YOSHIKAWA, YASUHIRO IKABATA, HIROMI NAKAI
     UNIVERSITY OF NEBRASKA:
          PEIFENG SU, DEJUN SI, NANDUN THELLAMUREGE, YALI WANG, HUI LI
     UNIVERSITY OF ZURICH:
          ROBERTO PEVERATI, KIM BALDRIDGE
     N. COPERNICUS UNIVERSITY AND JACKSON STATE UNIVERSITY:
          MARIA BARYSZ

 EXECUTION OF GAMESS BEGUN Thu Feb 26 00:16:04 2015

            ECHO OF THE FIRST FEW INPUT CARDS -
 INPUT CARD> $BASIS GBASIS=PC1 $END                                                         
 INPUT CARD> $CONTRL COORD=ZMT ISPHER=1 RUNTYP=ENERGY DFTTYP=PBE $END                       
 INPUT CARD>                                                                                
 INPUT CARD> $DATA                                                                          
 INPUT CARD>Title                                                                           
 INPUT CARD>Cnv 2                                                                           
 INPUT CARD>                                                                                
 INPUT CARD>S                                                                               
 INPUT CARD>O 1 1.40                                                                        
 INPUT CARD>O 1 1.40 2 160.0                                                                
 INPUT CARD> $END                                                                           
    1000000 WORDS OF MEMORY AVAILABLE

     BASIS OPTIONS
     -------------
     GBASIS=PC1          IGAUSS=       0      POLAR=NONE    
     NDFUNC=       0     NFFUNC=       0     DIFFSP=       F
     NPFUNC=       0      DIFFS=       F     BASNAM=        


     RUN TITLE
     ---------
 Title                                                                           

 THE POINT GROUP OF THE MOLECULE IS CNV     
 THE ORDER OF THE PRINCIPAL AXIS IS     2

 YOUR FULLY SUBSTITUTED Z-MATRIX IS
 S   
 O      1   1.4000000
 O      1   1.4000000  2  160.0000

 THE MOMENTS OF INERTIA ARE (AMU-ANGSTROM**2)
 IXX=     0.945   IYY=    60.809   IZZ=    61.754

 ATOM      ATOMIC                      COORDINATES (BOHR)
           CHARGE         X                   Y                   Z
 S          16.0     0.0000000000        0.0000000000       -0.2297669766
 O           8.0    -2.6054235253        0.0000000000        0.2296394871
 O           8.0     2.6054235253        0.0000000000        0.2296394871

          INTERNUCLEAR DISTANCES (ANGS.)
          ------------------------------

                1 S          2 O          3 O     

   1 S       0.0000000    1.4000000 *  1.4000000 *
   2 O       1.4000000 *  0.0000000    2.7574617 *
   3 O       1.4000000 *  2.7574617 *  0.0000000  

  * ... LESS THAN  3.000


     ATOMIC BASIS SET
     ----------------
 THE CONTRACTED PRIMITIVE FUNCTIONS HAVE BEEN UNNORMALIZED
 THE CONTRACTED BASIS FUNCTIONS ARE NOW NORMALIZED TO UNITY

  SHELL TYPE  PRIMITIVE        EXPONENT          CONTRACTION COEFFICIENT(S)

 S         

      1   S       1         55510.0000000    0.000587229760
      1   S       2          8326.7000000    0.004532413947
      1   S       3          1895.6000000    0.023265261648
      1   S       4           536.7700000    0.089696133027
      1   S       5           174.6700000    0.254098332277
      1   S       6            62.5780000    0.438665087637
      1   S       7            23.5730000    0.314547135094
      1   S       8             5.8908000    0.032727897102

      2   S       9          8326.7000000   -0.000019755715
      2   S      10          1895.6000000   -0.000043822381
      2   S      11           536.7700000   -0.001730264906
      2   S      12           174.6700000   -0.009381263460
      2   S      13            62.5780000   -0.064050766303
      2   S      14            23.5730000   -0.082478179196
      2   S      15             5.8908000    0.478342956889
      2   S      16             2.1852000    0.626896670208

      3   S      17          1895.6000000    0.000016227260
      3   S      18           536.7700000    0.000191135619
      3   S      19           174.6700000    0.001952069674
      3   S      20            62.5780000    0.010578701087
      3   S      21            23.5730000    0.022164934551
      3   S      22             5.8908000   -0.184968323118
      3   S      23             2.1852000   -0.480920750976
      3   S      24             0.4528200    1.243822243872

      4   S      25             0.1620200    1.000000000000

      5   P      26           395.4500000    0.004642761329
      5   P      27            92.8340000    0.036023396489
      5   P      28            29.2660000    0.149058869978
      5   P      29            10.5950000    0.360033266263
      5   P      30             4.0272000    0.455756476221
      5   P      31             1.5484000    0.206167664178

      6   P      32            92.8340000    0.000169901442
      6   P      33            29.2660000   -0.002541839934
      6   P      34            10.5950000   -0.007867614595
      6   P      35             4.0272000   -0.037231009184
      6   P      36             1.5484000    0.161417246830
      6   P      37             0.4613400    0.902230419976

      7   P      38             0.1313100    1.000000000000

      8   D      39             0.5500000    1.000000000000

 O         

     15   S      40          2306.7000000    0.005424388755
     15   S      41           347.1500000    0.040474749465
     15   S      42            78.8900000    0.180219634554
     15   S      43            21.8760000    0.462370311787
     15   S      44             6.6646000    0.454888396263

     16   S      45           347.1500000   -0.000655003786
     16   S      46            78.8900000   -0.005362052952
     16   S      47            21.8760000   -0.074902158894
     16   S      48             6.6646000   -0.181442579655
     16   S      49             1.0669000    1.102006874042

     17   S      50             0.3070000    1.000000000000

     18   P      51            17.0220000    0.068979967443
     18   P      52             3.6838000    0.351985516325
     18   P      53             0.9923400    0.724036547822

     19   P      54             0.2448700    1.000000000000

     20   D      55             1.0000000    1.000000000000

 TOTAL NUMBER OF BASIS SET SHELLS             =   20
 NUMBER OF CARTESIAN GAUSSIAN BASIS FUNCTIONS =   49
 NOTE: THIS RUN WILL RESTRICT THE MO VARIATION SPACE TO SPHERICAL HARMONICS.
 THE NUMBER OF ORBITALS KEPT IN THE VARIATIONAL SPACE WILL BE PRINTED LATER.
 NUMBER OF ELECTRONS                          =   32
 CHARGE OF MOLECULE                           =    0
 SPIN MULTIPLICITY                            =    1
 NUMBER OF OCCUPIED ORBITALS (ALPHA)          =   16
 NUMBER OF OCCUPIED ORBITALS (BETA )          =   16
 TOTAL NUMBER OF ATOMS                        =    3
 THE NUCLEAR REPULSION ENERGY IS      109.0459121189

     LEBEDEV GRID-BASED DFT OPTIONS
     ------------------------------
     DFTTYP=PBE     
     NRAD  =      96     NLEB  =     302
     NRAD0 =      24     NLEB0 =     110
     SWOFF =    5.00E-03 (PURE SCF -> DFT)
     SWITCH=    3.00E-04 (COARSE -> TIGHT GRID)
     THRESH=    0.00E+00 GTHRE=    1.00E+00

 GRIMME'S EMPIRICAL DISPERSION CORRECTION= F

     $CONTRL OPTIONS
     ---------------
 SCFTYP=RHF          RUNTYP=ENERGY       EXETYP=RUN     
 MPLEVL=       0     CITYP =NONE         CCTYP =NONE         VBTYP =NONE    
 DFTTYP=PBE          TDDFT =NONE    
 MULT  =       1     ICHARG=       0     NZVAR =       0     COORD =ZMT     
 PP    =NONE         RELWFN=NONE         LOCAL =NONE         NUMGRD=       F
 ISPHER=       1     NOSYM =       0     MAXIT =      30     UNITS =ANGS    
 PLTORB=       F     MOLPLT=       F     AIMPAC=       F     FRIEND=        
 NPRINT=       7     IREST =       0     GEOM  =INPUT   
 NORMF =       0     NORMP =       0     ITOL  =      20     ICUT  =       9
 INTTYP=BEST         GRDTYP=BEST         QMTTOL= 1.0E-06

     $SYSTEM OPTIONS
     ---------------
  REPLICATED MEMORY=     1000000 WORDS (ON EVERY NODE).
 DISTRIBUTED MEMDDI=           0 MILLION WORDS IN AGGREGATE,
 MEMDDI DISTRIBUTED OVER   1 PROCESSORS IS           0 WORDS/PROCESSOR.
 TOTAL MEMORY REQUESTED ON EACH PROCESSOR=     1000000 WORDS.
 TIMLIM=      525600.00 MINUTES, OR     365.0 DAYS.
 PARALL= F  BALTYP=  DLB     KDIAG=    0  COREFL= F
 MXSEQ2=     300 MXSEQ3=     150

          ----------------
          PROPERTIES INPUT
          ----------------

     MOMENTS            FIELD           POTENTIAL          DENSITY
 IEMOM =       1   IEFLD =       0   IEPOT =       0   IEDEN =       0
 WHERE =COMASS     WHERE =NUCLEI     WHERE =NUCLEI     WHERE =NUCLEI  
 OUTPUT=BOTH       OUTPUT=BOTH       OUTPUT=BOTH       OUTPUT=BOTH    
 IEMINT=       0   IEFINT=       0                     IEDINT=       0
                                                       MORB  =       0
          EXTRAPOLATION IN EFFECT
          DIIS IN EFFECT
 ORBITAL PRINTING OPTION: NPREO=     1    49     2     1

     -------------------------------
     INTEGRAL TRANSFORMATION OPTIONS
     -------------------------------
     NWORD  =            0
     CUTOFF = 1.0E-09     MPTRAN =       0
     DIRTRF =       F     AOINTS =DUP     

          ----------------------
          INTEGRAL INPUT OPTIONS
          ----------------------
 NOPK  =       1 NORDER=       0 SCHWRZ=       F

   --- ENCODED Z MATRIX ---
 COORD  TYPE   I   J   K   L   M   N
    1      1    3   1
    2      1    2   1
    3      2    2   1   3

 THE DETERMINANT OF THE G MATRIX IS 10**(    -4)

 THE DETERMINANT OF THE G MATRIX IS 10**(    -4)
 * * * WARNING * * *
 YOUR B MATRIX HAS A SMALL DETERMINANT.
 THIS SUGGESTS YOU MAY HAVE BADLY CHOSEN COORDINATES.

     ------------------------------------------
     THE POINT GROUP IS CNV, NAXIS= 2, ORDER= 4
     ------------------------------------------

 -- VARIATIONAL SPACE WILL BE RESTRICTED TO PURE SPHERICAL HARMONICS ONLY --
 AFTER EXCLUDING CONTAMINANT COMBINATIONS FROM THE CARTESIAN GAUSSIAN BASIS
 SET, THE NUMBER OF SPHERICAL HARMONICS KEPT IN THE VARIATION SPACE IS   46

     DIMENSIONS OF THE SYMMETRY SUBSPACES ARE
 A1  =   19     A2  =    5     B1  =   14     B2  =    8

 ..... DONE SETTING UP THE RUN .....
 STEP CPU TIME =     0.01 TOTAL CPU TIME =        0.0 (    0.0 MIN)
 TOTAL WALL CLOCK TIME=        0.0 SECONDS, CPU UTILIZATION IS  50.00%

          ********************
          1 ELECTRON INTEGRALS
          ********************
 ...... END OF ONE-ELECTRON INTEGRALS ......
 STEP CPU TIME =     0.00 TOTAL CPU TIME =        0.0 (    0.0 MIN)
 TOTAL WALL CLOCK TIME=        0.0 SECONDS, CPU UTILIZATION IS  50.00%

          -------------
          GUESS OPTIONS
          -------------
          GUESS =HUCKEL            NORB  =       0          NORDER=       0
          MIX   =       F          PRTMO =       F          PUNMO =       F
          TOLZ  = 1.0E-08          TOLE  = 1.0E-05
          SYMDEN=       F          PURIFY=       F

 INITIAL GUESS ORBITALS GENERATED BY HUCKEL   ROUTINE.
 HUCKEL GUESS REQUIRES     21583 WORDS.

 STATISTICS FOR GENERATION OF SYMMETRY ORBITAL -Q- MATRIX
 NUMBER OF CARTESIAN ATOMIC ORBITALS=         49
 NUMBER OF SPHERICAL CONTAMINANTS DROPPED=     3
 NUMBER OF LINEARLY DEPENDENT MOS DROPPED=     0
 TOTAL NUMBER OF MOS IN VARIATION SPACE=      46

 SYMMETRIES FOR INITIAL GUESS ORBITALS FOLLOW.   BOTH SET(S).
    16 ORBITALS ARE OCCUPIED (    7 CORE ORBITALS).
     8=?A1      9=?B1     10=?A1     11=B2      12=A1      13=B1      14=A2  
    15=B1      16=A1      17=B2      18=?A1     19=?B1     20=A1      21=A1  
    22=A1      23=A1      24=A1      25=A1      26=A1  
 ...... END OF INITIAL ORBITAL SELECTION ......
 STEP CPU TIME =     0.01 TOTAL CPU TIME =        0.0 (    0.0 MIN)
 TOTAL WALL CLOCK TIME=        0.0 SECONDS, CPU UTILIZATION IS  66.67%

                    ----------------------
                    AO INTEGRAL TECHNOLOGY
                    ----------------------
     S,P,L SHELL ROTATED AXIS INTEGRALS, REPROGRAMMED BY
        KAZUYA ISHIMURA (IMS) AND JOSE SIERRA (SYNSTAR).
     S,P,D,L SHELL ROTATED AXIS INTEGRALS PROGRAMMED BY
        KAZUYA ISHIMURA (INSTITUTE FOR MOLECULAR SCIENCE).
     S,P,D,F,G SHELL TO TOTAL QUARTET ANGULAR MOMENTUM SUM 5,
        ERIC PROGRAM BY GRAHAM FLETCHER (ELORET AND NASA ADVANCED
        SUPERCOMPUTING DIVISION, AMES RESEARCH CENTER).
     S,P,D,F,G,L SHELL GENERAL RYS QUADRATURE PROGRAMMED BY
        MICHEL DUPUIS (PACIFIC NORTHWEST NATIONAL LABORATORY).

          --------------------
          2 ELECTRON INTEGRALS
          --------------------

 THE -PK- OPTION IS OFF, THE INTEGRALS ARE NOT IN SUPERMATRIX FORM.
 STORING   15000 INTEGRALS/RECORD ON DISK, USING 12 BYTES/INTEGRAL.
 TWO ELECTRON INTEGRAL EVALUATION REQUIRES   90606 WORDS OF MEMORY.
 II,JST,KST,LST =  1  1  1  1 NREC =         1 INTLOC =    1
 II,JST,KST,LST =  2  1  1  1 NREC =         1 INTLOC =    2
 II,JST,KST,LST =  3  1  1  1 NREC =         1 INTLOC =    7
 II,JST,KST,LST =  4  1  1  1 NREC =         1 INTLOC =   22
 II,JST,KST,LST =  5  1  1  1 NREC =         1 INTLOC =   56
 II,JST,KST,LST =  6  1  1  1 NREC =         1 INTLOC =  125
 II,JST,KST,LST =  7  1  1  1 NREC =         1 INTLOC =  329
 II,JST,KST,LST =  8  1  1  1 NREC =         1 INTLOC =  776
 II,JST,KST,LST =  9  1  1  1 NREC =         1 INTLOC = 2864
 II,JST,KST,LST = 10  1  1  1 NREC =         1 INTLOC = 2864
 II,JST,KST,LST = 11  1  1  1 NREC =         1 INTLOC = 2864
 II,JST,KST,LST = 12  1  1  1 NREC =         1 INTLOC = 2864
 II,JST,KST,LST = 13  1  1  1 NREC =         1 INTLOC = 2864
 II,JST,KST,LST = 14  1  1  1 NREC =         1 INTLOC = 2864
 II,JST,KST,LST = 15  1  1  1 NREC =         1 INTLOC = 2864
 II,JST,KST,LST = 16  1  1  1 NREC =         1 INTLOC = 5116
 II,JST,KST,LST = 17  1  1  1 NREC =         1 INTLOC = 8292
 II,JST,KST,LST = 18  1  1  1 NREC =         1 INTLOC =12722
 II,JST,KST,LST = 19  1  1  1 NREC =         3 INTLOC =  281
 II,JST,KST,LST = 20  1  1  1 NREC =         5 INTLOC = 1344
 TOTAL NUMBER OF NONZERO TWO-ELECTRON INTEGRALS =              175108
         12 INTEGRAL RECORDS WERE STORED ON DISK FILE  8.
  ...... END OF TWO-ELECTRON INTEGRALS .....
 STEP CPU TIME =     0.16 TOTAL CPU TIME =        0.2 (    0.0 MIN)
 TOTAL WALL CLOCK TIME=        0.2 SECONDS, CPU UTILIZATION IS  94.74%

          --------------------------
               R-PBE SCF CALCULATION
          --------------------------

     NUCLEAR ENERGY =       109.0459121189
     MAXIT =   30     NPUNCH=    2
     EXTRAP=T  DAMP=F  SHIFT=F  RSTRCT=F  DIIS=T  DEM=F  SOSCF=F
         DENSITY MATRIX CONVERGENCE THRESHOLD=  1.00E-05
     COARSE -> FINE DFT GRID SWITCH THRESHOLD=  3.00E-04 (SWITCH IN $DFT)
                   HF -> DFT SWITCH THRESHOLD=  5.00E-03 (SWOFF IN $DFT)
     MEMORY REQUIRED FOR RHF ITERS=    183108 WORDS.

 DFT CODE IS SWITCHING FROM THE FINE GRID NRAD= 96,  NLEB=  302
                      TO THE COARSE GRID NRAD0= 24, NLEB0=  110

     EXCHANGE FUNCTIONAL   =PBE       
     CORRELATION FUNCTIONAL=PBE       
     DFT THRESHOLD         =.460E-07
     GRID CHANGE THRESHOLD =.300E-03
 FOR AN EULER-MACLAURIN QUADRATURE USING  96 RADIAL POINTS:
 SMALLEST GAUSSIAN PRIMITIVE EXPONENT=        0.1313100000 OF TYPE -P-
 ON ATOM NUMBER   1 HAS RADIAL NORMALIZATION=  1.000000
  LARGEST GAUSSIAN PRIMITIVE EXPONENT=    55510.0000000000 OF TYPE -S-
 ON ATOM NUMBER   1 HAS RADIAL NORMALIZATION=  0.999999
 DFT IS SWITCHED OFF, PERFORMING PURE SCF UNTIL SWOFF THRESHOLD IS REACHED.

 ITER EX DEM     TOTAL ENERGY        E CHANGE  DENSITY CHANGE    DIIS ERROR
   1  0  0     -545.8995431684  -545.8995431684   0.353428437   1.529284482
          * * *   INITIATING DIIS PROCEDURE   * * *
   2  1  0     -546.7441443688    -0.8446012004   0.496729344   0.288530462
   3  2  0     -546.8758778607    -0.1317334919   0.120840301   0.217328543
   4  3  0     -546.9904206561    -0.1145427954   0.193003913   0.040215017
   5  4  0     -547.0064712489    -0.0160505927   0.174886523   0.027895986
   6  5  0     -547.0153067170    -0.0088354681   0.126409300   0.015432260
   7  6  0     -547.0188066919    -0.0034999749   0.034562406   0.003658236
   8  7  0     -547.0190199408    -0.0002132490   0.004909554   0.000577503
 CONVERGED TO SWOFF, SO DFT CALCULATION IS NOW SWITCHED ON.
          * * *   INITIATING DIIS PROCEDURE   * * *
   9  8  0     -548.1583884847    -1.1393685439   0.184667696   0.115937737
  10  9  0     -548.1706747898    -0.0122863051   0.151714960   0.072723377
  11 10  0     -548.1687257084     0.0019490814   0.065178236   0.090963338
  12 11  0     -548.1904376021    -0.0217118937   0.022220501   0.021310922
  13 12  0     -548.1914394223    -0.0010018202   0.011410346   0.001708188
  14 13  0     -548.1914529320    -0.0000135097   0.003018684   0.000421181
  15 14  0     -548.1914537982    -0.0000008663   0.000155161   0.000042139
 DFT CODE IS SWITCHING BACK TO THE FINE GRID
          * * *   INITIATING DIIS PROCEDURE   * * *
  16 15  0     -548.1703232337     0.0211305645   0.010967597   0.008571839
  17 16  0     -548.1704592533    -0.0001360196   0.007132821   0.003407472
  18 17  0     -548.1704549518     0.0000043015   0.002936921   0.003954645
  19 18  0     -548.1704829221    -0.0000279703   0.001244181   0.001051101
  20 19  0     -548.1704868748    -0.0000039526   0.000399268   0.000099286
  21 20  0     -548.1704869150    -0.0000000403   0.000119526   0.000011689
  22 21  0     -548.1704869159    -0.0000000009   0.000019756   0.000003118
  23 22  0     -548.1704869160    -0.0000000001   0.000001118   0.000000258

          -----------------
          DENSITY CONVERGED
          -----------------
     TIME TO FORM FOCK OPERATORS=       4.3 SECONDS (       0.2 SEC/ITER)
     TIME TO SOLVE SCF EQUATIONS=       0.0 SECONDS (       0.0 SEC/ITER)

 FINAL R-PBE ENERGY IS     -548.1704869160 AFTER  23 ITERATIONS
 DFT EXCHANGE + CORRELATION ENERGY =       -42.6064781695
 TOTAL ELECTRON NUMBER             =        31.9999957361

          ------------
          EIGENVECTORS
          ------------

                      1          2          3          4          5
                  -88.2081   -18.8050   -18.8049    -7.8258    -5.8483
                     A1         B1         A1         A1         B1  
    1  S  1  S    1.002991   0.000000  -0.000041  -0.274019   0.000000
    2  S  1  S   -0.010275   0.000000   0.000227   1.039361   0.000000
    3  S  1  S    0.001944   0.000000  -0.000074   0.041271   0.000000
    4  S  1  S   -0.000372   0.000000   0.007916  -0.008289   0.000000
    5  S  1  X    0.000000  -0.000040   0.000000   0.000000   0.996421
    6  S  1  Y    0.000000   0.000000   0.000000   0.000000   0.000000
    7  S  1  Z    0.000061   0.000000   0.000015   0.012595   0.000000
    8  S  1  X    0.000000  -0.002028   0.000000   0.000000   0.009369
    9  S  1  Y    0.000000   0.000000   0.000000   0.000000   0.000000
   10  S  1  Z    0.000061   0.000000   0.000301   0.001453   0.000000
   11  S  1  X    0.000000  -0.009218   0.000000   0.000000  -0.000755
   12  S  1  Y    0.000000   0.000000   0.000000   0.000000   0.000000
   13  S  1  Z    0.000029   0.000000   0.001428  -0.000211   0.000000
   14  S  1 XX    0.000334   0.000000  -0.000344   0.002858   0.000000
   15  S  1 YY   -0.000172   0.000000   0.000117  -0.001422   0.000000
   16  S  1 ZZ   -0.000162   0.000000   0.000227  -0.001437   0.000000
   17  S  1 XY    0.000000   0.000000   0.000000   0.000000   0.000000
   18  S  1 XZ    0.000000  -0.000103   0.000000   0.000000   0.001185
   19  S  1 YZ    0.000000   0.000000   0.000000   0.000000   0.000000
   20  O  2  S    0.000021   0.703326   0.703213  -0.000144   0.000734
   21  O  2  S    0.000066   0.026901   0.025777   0.000078  -0.000592
   22  O  2  S   -0.000373  -0.016174  -0.011665  -0.002014  -0.000816
   23  O  2  X   -0.000116   0.000817   0.001208  -0.000648  -0.001484
   24  O  2  Y    0.000000   0.000000   0.000000   0.000000   0.000000
   25  O  2  Z    0.000025  -0.000161   0.000013   0.000128   0.000303
   26  O  2  X   -0.000323  -0.003236  -0.003342  -0.002359  -0.000271
   27  O  2  Y    0.000000   0.000000   0.000000   0.000000   0.000000
   28  O  2  Z    0.000067   0.001219  -0.000088   0.000557   0.000307
   29  O  2 XX   -0.000185  -0.000285  -0.000282  -0.000460  -0.001018
   30  O  2 YY    0.000100   0.000175   0.000133   0.000259   0.000572
   31  O  2 ZZ    0.000085   0.000110   0.000149   0.000200   0.000445
   32  O  2 XY    0.000000   0.000000   0.000000   0.000000   0.000000
   33  O  2 XZ    0.000076   0.000220  -0.000045   0.000245   0.000540
   34  O  2 YZ    0.000000   0.000000   0.000000   0.000000   0.000000
   35  O  3  S    0.000021  -0.703326   0.703213  -0.000144  -0.000734
   36  O  3  S    0.000066  -0.026901   0.025777   0.000078   0.000592
   37  O  3  S   -0.000373   0.016174  -0.011665  -0.002014   0.000816
   38  O  3  X    0.000116   0.000817  -0.001208   0.000648  -0.001484
   39  O  3  Y    0.000000   0.000000   0.000000   0.000000   0.000000
   40  O  3  Z    0.000025   0.000161   0.000013   0.000128  -0.000303
   41  O  3  X    0.000323  -0.003236   0.003342   0.002359  -0.000271
   42  O  3  Y    0.000000   0.000000   0.000000   0.000000   0.000000
   43  O  3  Z    0.000067  -0.001219  -0.000088   0.000557  -0.000307
   44  O  3 XX   -0.000185   0.000285  -0.000282  -0.000460   0.001018
   45  O  3 YY    0.000100  -0.000175   0.000133   0.000259  -0.000572
   46  O  3 ZZ    0.000085  -0.000110   0.000149   0.000200  -0.000445
   47  O  3 XY    0.000000   0.000000   0.000000   0.000000   0.000000
   48  O  3 XZ   -0.000076   0.000220   0.000045  -0.000245   0.000540
   49  O  3 YZ    0.000000   0.000000   0.000000   0.000000   0.000000

                      6          7          8          9         10
                   -5.8447    -5.8416    -1.0724    -1.0061    -0.5669
                     B2         A1         A1         B1         A1  
    1  S  1  S    0.000000   0.003593   0.053607   0.000000   0.059365
    2  S  1  S    0.000000  -0.013484  -0.158034   0.000000  -0.160718
    3  S  1  S    0.000000   0.000465   0.306393   0.000000   0.384858
    4  S  1  S    0.000000  -0.001197   0.147160   0.000000   0.306389
    5  S  1  X    0.000000   0.000000   0.000000   0.154565   0.000000
    6  S  1  Y    0.996975   0.000000   0.000000   0.000000   0.000000
    7  S  1  Z    0.000000   0.996933  -0.031132   0.000000  -0.008997
    8  S  1  X    0.000000   0.000000   0.000000  -0.284296   0.000000
    9  S  1  Y    0.008658   0.000000   0.000000   0.000000   0.000000
   10  S  1  Z    0.000000   0.008463   0.062632   0.000000   0.028600
   11  S  1  X    0.000000   0.000000   0.000000   0.002502   0.000000
   12  S  1  Y   -0.000157   0.000000   0.000000   0.000000   0.000000
   13  S  1  Z    0.000000  -0.000187   0.001543   0.000000  -0.006332
   14  S  1 XX    0.000000  -0.000865   0.084708   0.000000  -0.027163
   15  S  1 YY    0.000000  -0.000322  -0.044392   0.000000   0.015400
   16  S  1 ZZ    0.000000   0.001187  -0.040315   0.000000   0.011763
   17  S  1 XY    0.000000   0.000000   0.000000   0.000000   0.000000
   18  S  1 XZ    0.000000   0.000000   0.000000  -0.037678   0.000000
   19  S  1 YZ    0.000872   0.000000   0.000000   0.000000   0.000000
   20  O  2  S    0.000000  -0.000137  -0.124226  -0.143643   0.106320
   21  O  2  S    0.000000   0.000070   0.246731   0.285111  -0.218716
   22  O  2  S    0.000000   0.000700   0.250780   0.331853  -0.369391
   23  O  2  X    0.000000   0.000411   0.118989   0.119588   0.224770
   24  O  2  Y    0.000149   0.000000   0.000000   0.000000   0.000000
   25  O  2  Z    0.000000   0.000069  -0.013307  -0.015830  -0.031265
   26  O  2  X    0.000000   0.000336   0.035186   0.036652   0.114005
   27  O  2  Y    0.000009   0.000000   0.000000   0.000000   0.000000
   28  O  2  Z    0.000000  -0.000070   0.001211  -0.007492  -0.012290
   29  O  2 XX    0.000000   0.000329   0.011132   0.011271   0.013876
   30  O  2 YY    0.000000  -0.000105  -0.004650  -0.005519  -0.007680
   31  O  2 ZZ    0.000000  -0.000224  -0.006482  -0.005752  -0.006196
   32  O  2 XY    0.000274   0.000000   0.000000   0.000000   0.000000
   33  O  2 XZ    0.000000   0.000155   0.001295  -0.003893  -0.004206
   34  O  2 YZ   -0.000082   0.000000   0.000000   0.000000   0.000000
   35  O  3  S    0.000000  -0.000137  -0.124226   0.143643   0.106320
   36  O  3  S    0.000000   0.000070   0.246731  -0.285111  -0.218716
   37  O  3  S    0.000000   0.000700   0.250780  -0.331853  -0.369391
   38  O  3  X    0.000000  -0.000411  -0.118989   0.119588  -0.224770
   39  O  3  Y    0.000149   0.000000   0.000000   0.000000   0.000000
   40  O  3  Z    0.000000   0.000069  -0.013307   0.015830  -0.031265
   41  O  3  X    0.000000  -0.000336  -0.035186   0.036652  -0.114005
   42  O  3  Y    0.000009   0.000000   0.000000   0.000000   0.000000
   43  O  3  Z    0.000000  -0.000070   0.001211   0.007492  -0.012290
   44  O  3 XX    0.000000   0.000329   0.011132  -0.011271   0.013876
   45  O  3 YY    0.000000  -0.000105  -0.004650   0.005519  -0.007680
   46  O  3 ZZ    0.000000  -0.000224  -0.006482   0.005752  -0.006196
   47  O  3 XY   -0.000274   0.000000   0.000000   0.000000   0.000000
   48  O  3 XZ    0.000000  -0.000155  -0.001295  -0.003893   0.004206
   49  O  3 YZ   -0.000082   0.000000   0.000000   0.000000   0.000000

                     11         12         13         14         15
                   -0.4556    -0.4524    -0.4499    -0.3602    -0.3547
                     B2         B1         A1         A2         B1  
    1  S  1  S    0.000000   0.000000  -0.008034   0.000000   0.000000
    2  S  1  S    0.000000   0.000000   0.024242   0.000000   0.000000
    3  S  1  S    0.000000   0.000000  -0.049102   0.000000   0.000000
    4  S  1  S    0.000000   0.000000  -0.079241   0.000000   0.000000
    5  S  1  X    0.000000   0.159909   0.000000   0.000000  -0.012812
    6  S  1  Y   -0.198547   0.000000   0.000000   0.000000   0.000000
    7  S  1  Z    0.000000   0.000000  -0.194141   0.000000   0.000000
    8  S  1  X    0.000000  -0.372047   0.000000   0.000000   0.024907
    9  S  1  Y    0.456666   0.000000   0.000000   0.000000   0.000000
   10  S  1  Z    0.000000   0.000000   0.444361   0.000000   0.000000
   11  S  1  X    0.000000   0.035313   0.000000   0.000000   0.027428
   12  S  1  Y    0.217406   0.000000   0.000000   0.000000   0.000000
   13  S  1  Z    0.000000   0.000000   0.211161   0.000000   0.000000
   14  S  1 XX    0.000000   0.000000  -0.042605   0.000000   0.000000
   15  S  1 YY    0.000000   0.000000  -0.007645   0.000000   0.000000
   16  S  1 ZZ    0.000000   0.000000   0.050251   0.000000   0.000000
   17  S  1 XY    0.000000   0.000000   0.000000  -0.149875   0.000000
   18  S  1 XZ    0.000000  -0.026042   0.000000   0.000000  -0.146559
   19  S  1 YZ    0.033492   0.000000   0.000000   0.000000   0.000000
   20  O  2  S    0.000000   0.067449   0.003363   0.000000   0.000567
   21  O  2  S    0.000000  -0.142033  -0.008079   0.000000  -0.002712
   22  O  2  S    0.000000  -0.232236  -0.005066   0.000000   0.002732
   23  O  2  X    0.000000   0.384956   0.075379   0.000000   0.101753
   24  O  2  Y    0.325200   0.000000   0.000000   0.458128   0.000000
   25  O  2  Z    0.000000  -0.078937   0.318280   0.000000   0.447253
   26  O  2  X    0.000000   0.208073   0.053748   0.000000   0.066984
   27  O  2  Y    0.188500   0.000000   0.000000   0.312745   0.000000
   28  O  2  Z    0.000000  -0.050738   0.184065   0.000000   0.305721
   29  O  2 XX    0.000000   0.015425   0.010624   0.000000   0.002675
   30  O  2 YY    0.000000  -0.008690  -0.002980   0.000000   0.000495
   31  O  2 ZZ    0.000000  -0.006736  -0.007645   0.000000  -0.003170
   32  O  2 XY    0.025141   0.000000   0.000000   0.019055   0.000000
   33  O  2 XZ    0.000000  -0.007350   0.022189   0.000000   0.019656
   34  O  2 YZ   -0.003026   0.000000   0.000000  -0.001980   0.000000
   35  O  3  S    0.000000  -0.067449   0.003363   0.000000  -0.000567
   36  O  3  S    0.000000   0.142033  -0.008079   0.000000   0.002712
   37  O  3  S    0.000000   0.232236  -0.005066   0.000000  -0.002732
   38  O  3  X    0.000000   0.384956  -0.075379   0.000000   0.101753
   39  O  3  Y    0.325200   0.000000   0.000000  -0.458128   0.000000
   40  O  3  Z    0.000000   0.078937   0.318280   0.000000  -0.447253
   41  O  3  X    0.000000   0.208073  -0.053748   0.000000   0.066984
   42  O  3  Y    0.188500   0.000000   0.000000  -0.312745   0.000000
   43  O  3  Z    0.000000   0.050738   0.184065   0.000000  -0.305721
   44  O  3 XX    0.000000  -0.015425   0.010624   0.000000  -0.002675
   45  O  3 YY    0.000000   0.008690  -0.002980   0.000000  -0.000495
   46  O  3 ZZ    0.000000   0.006736  -0.007645   0.000000   0.003170
   47  O  3 XY   -0.025141   0.000000   0.000000   0.019055   0.000000
   48  O  3 XZ    0.000000  -0.007350  -0.022189   0.000000   0.019656
   49  O  3 YZ   -0.003026   0.000000   0.000000   0.001980   0.000000

                     16         17         18         19         20
                   -0.2153    -0.1302    -0.0999     0.2005     0.3577
                     A1         B2         A1         B1         A1  
    1  S  1  S    0.029278   0.000000   0.011906   0.000000  -0.027000
    2  S  1  S   -0.153178   0.000000  -0.073502   0.000000  -0.108349
    3  S  1  S    0.102797   0.000000   0.031035   0.000000  -0.424874
    4  S  1  S    0.885345   0.000000   0.528000   0.000000   0.849266
    5  S  1  X    0.000000   0.000000   0.000000  -0.073454   0.000000
    6  S  1  Y    0.000000  -0.215636   0.000000   0.000000   0.000000
    7  S  1  Z    0.089884   0.000000  -0.196110   0.000000   0.270616
    8  S  1  X    0.000000   0.000000   0.000000   0.195193   0.000000
    9  S  1  Y    0.000000   0.553383   0.000000   0.000000   0.000000
   10  S  1  Z   -0.216876   0.000000   0.510800   0.000000  -1.036771
   11  S  1  X    0.000000   0.000000   0.000000   2.018663   0.000000
   12  S  1  Y    0.000000   0.544160   0.000000   0.000000   0.000000
   13  S  1  Z   -0.115925   0.000000   0.570951   0.000000   1.254992
   14  S  1 XX   -0.230710   0.000000  -0.123771   0.000000   0.181758
   15  S  1 YY    0.120451   0.000000   0.074720   0.000000   0.016079
   16  S  1 ZZ    0.110258   0.000000   0.049051   0.000000  -0.197837
   17  S  1 XY    0.000000   0.000000   0.000000   0.000000   0.000000
   18  S  1 XZ    0.000000   0.000000   0.000000  -0.092673   0.000000
   19  S  1 YZ    0.000000  -0.009204   0.000000   0.000000   0.000000
   20  O  2  S    0.025514   0.000000   0.024974  -0.082181   0.011813
   21  O  2  S   -0.058299   0.000000  -0.052660   0.118090   0.005124
   22  O  2  S   -0.166658   0.000000  -0.196729   1.142388  -0.320020
   23  O  2  X   -0.322251   0.000000  -0.235031   0.056060   0.086234
   24  O  2  Y    0.000000  -0.393799   0.000000   0.000000   0.000000
   25  O  2  Z    0.225810   0.000000  -0.318989  -0.111305  -0.074380
   26  O  2  X   -0.246108   0.000000  -0.217305   0.357588  -0.171342
   27  O  2  Y    0.000000  -0.351500   0.000000   0.000000   0.000000
   28  O  2  Z    0.176364   0.000000  -0.292226  -0.163927  -0.060808
   29  O  2 XX   -0.003910   0.000000  -0.001637   0.021436  -0.041124
   30  O  2 YY    0.001585   0.000000   0.001732  -0.009654   0.020488
   31  O  2 ZZ    0.002325   0.000000  -0.000095  -0.011781   0.020636
   32  O  2 XY    0.000000  -0.000630   0.000000   0.000000   0.000000
   33  O  2 XZ    0.000537   0.000000   0.000295  -0.000649  -0.019751
   34  O  2 YZ    0.000000  -0.000968   0.000000   0.000000   0.000000
   35  O  3  S    0.025514   0.000000   0.024974   0.082181   0.011813
   36  O  3  S   -0.058299   0.000000  -0.052660  -0.118090   0.005124
   37  O  3  S   -0.166658   0.000000  -0.196729  -1.142388  -0.320020
   38  O  3  X    0.322251   0.000000   0.235031   0.056060  -0.086234
   39  O  3  Y    0.000000  -0.393799   0.000000   0.000000   0.000000
   40  O  3  Z    0.225810   0.000000  -0.318989   0.111305  -0.074380
   41  O  3  X    0.246108   0.000000   0.217305   0.357588   0.171342
   42  O  3  Y    0.000000  -0.351500   0.000000   0.000000   0.000000
   43  O  3  Z    0.176364   0.000000  -0.292226   0.163927  -0.060808
   44  O  3 XX   -0.003910   0.000000  -0.001637  -0.021436  -0.041124
   45  O  3 YY    0.001585   0.000000   0.001732   0.009654   0.020488
   46  O  3 ZZ    0.002325   0.000000  -0.000095   0.011781   0.020636
   47  O  3 XY    0.000000   0.000630   0.000000   0.000000   0.000000
   48  O  3 XZ   -0.000537   0.000000  -0.000295  -0.000649   0.019751
   49  O  3 YZ    0.000000  -0.000968   0.000000   0.000000   0.000000

                     21         22         23         24         25
                    0.3589     0.4152     0.5165     0.5169     0.5322
                     B2         A1         B2         A1         B1  
    1  S  1  S    0.000000  -0.110438   0.000000  -0.004397   0.000000
    2  S  1  S    0.000000  -0.360942   0.000000  -0.006449   0.000000
    3  S  1  S    0.000000  -1.646673   0.000000  -0.056606   0.000000
    4  S  1  S    0.000000   2.363547   0.000000  -0.024966   0.000000
    5  S  1  X    0.000000   0.000000   0.000000   0.000000  -0.295208
    6  S  1  Y    0.285800   0.000000   0.043239   0.000000   0.000000
    7  S  1  Z    0.000000  -0.082607   0.000000  -0.042113   0.000000
    8  S  1  X    0.000000   0.000000   0.000000   0.000000   1.061646
    9  S  1  Y   -1.107121   0.000000  -0.167758   0.000000   0.000000
   10  S  1  Z    0.000000   0.339778   0.000000   0.161655   0.000000
   11  S  1  X    0.000000   0.000000   0.000000   0.000000  -0.895483
   12  S  1  Y    1.269132   0.000000   0.169620   0.000000   0.000000
   13  S  1  Z    0.000000  -0.266932   0.000000  -0.176313   0.000000
   14  S  1 XX    0.000000   0.185564   0.000000  -0.016656   0.000000
   15  S  1 YY    0.000000  -0.142318   0.000000   0.854937   0.000000
   16  S  1 ZZ    0.000000  -0.043247   0.000000  -0.838281   0.000000
   17  S  1 XY    0.000000   0.000000   0.000000   0.000000   0.000000
   18  S  1 XZ    0.000000   0.000000   0.000000   0.000000  -0.538031
   19  S  1 YZ   -0.133981   0.000000   0.978123   0.000000   0.000000
   20  O  2  S    0.000000   0.017150   0.000000  -0.003155  -0.013466
   21  O  2  S    0.000000  -0.009889   0.000000   0.007514   0.089318
   22  O  2  S    0.000000  -0.485247   0.000000   0.037199  -0.257031
   23  O  2  X    0.000000   0.198164   0.000000   0.017698   0.297400
   24  O  2  Y   -0.061964   0.000000  -0.097569   0.000000   0.000000
   25  O  2  Z    0.000000  -0.036849   0.000000   0.096719  -0.222350
   26  O  2  X    0.000000  -0.286294   0.000000   0.036338   0.059417
   27  O  2  Y   -0.101121   0.000000   0.005856   0.000000   0.000000
   28  O  2  Z    0.000000   0.083681   0.000000  -0.013329  -0.052155
   29  O  2 XX    0.000000  -0.062032   0.000000   0.000103  -0.041055
   30  O  2 YY    0.000000   0.032675   0.000000   0.035486   0.030781
   31  O  2 ZZ    0.000000   0.029357   0.000000  -0.035589   0.010274
   32  O  2 XY   -0.033813   0.000000   0.010816   0.000000   0.000000
   33  O  2 XZ    0.000000   0.031814   0.000000  -0.011423   0.051581
   34  O  2 YZ    0.001206   0.000000   0.041107   0.000000   0.000000
   35  O  3  S    0.000000   0.017150   0.000000  -0.003155   0.013466
   36  O  3  S    0.000000  -0.009889   0.000000   0.007514  -0.089318
   37  O  3  S    0.000000  -0.485247   0.000000   0.037199   0.257031
   38  O  3  X    0.000000  -0.198164   0.000000  -0.017698   0.297400
   39  O  3  Y   -0.061964   0.000000  -0.097569   0.000000   0.000000
   40  O  3  Z    0.000000  -0.036849   0.000000   0.096719   0.222350
   41  O  3  X    0.000000   0.286294   0.000000  -0.036338   0.059417
   42  O  3  Y   -0.101121   0.000000   0.005856   0.000000   0.000000
   43  O  3  Z    0.000000   0.083681   0.000000  -0.013329   0.052155
   44  O  3 XX    0.000000  -0.062032   0.000000   0.000103   0.041055
   45  O  3 YY    0.000000   0.032675   0.000000   0.035486  -0.030781
   46  O  3 ZZ    0.000000   0.029357   0.000000  -0.035589  -0.010274
   47  O  3 XY    0.033813   0.000000  -0.010816   0.000000   0.000000
   48  O  3 XZ    0.000000  -0.031814   0.000000   0.011423   0.051581
   49  O  3 YZ    0.001206   0.000000   0.041107   0.000000   0.000000

                     26         27         28         29         30
                    0.6091     0.6343     0.6417     0.7375     0.7408
                     A2         A1         B1         B1         A2  
    1  S  1  S    0.000000  -0.045220   0.000000   0.000000   0.000000
    2  S  1  S    0.000000  -0.159992   0.000000   0.000000   0.000000
    3  S  1  S    0.000000  -0.716223   0.000000   0.000000   0.000000
    4  S  1  S    0.000000  -1.052490   0.000000   0.000000   0.000000
    5  S  1  X    0.000000   0.000000  -0.210012   0.003340   0.000000
    6  S  1  Y    0.000000   0.000000   0.000000   0.000000   0.000000
    7  S  1  Z    0.000000   0.043960   0.000000   0.000000   0.000000
    8  S  1  X    0.000000   0.000000   1.046772   0.130369   0.000000
    9  S  1  Y    0.000000   0.000000   0.000000   0.000000   0.000000
   10  S  1  Z    0.000000  -0.235157   0.000000   0.000000   0.000000
   11  S  1  X    0.000000   0.000000   0.013804  -0.134581   0.000000
   12  S  1  Y    0.000000   0.000000   0.000000   0.000000   0.000000
   13  S  1  Z    0.000000  -0.020835   0.000000   0.000000   0.000000
   14  S  1 XX    0.000000  -0.591118   0.000000   0.000000   0.000000
   15  S  1 YY    0.000000   0.289098   0.000000   0.000000   0.000000
   16  S  1 ZZ    0.000000   0.302020   0.000000   0.000000   0.000000
   17  S  1 XY    0.867829   0.000000   0.000000   0.000000   0.547690
   18  S  1 XZ    0.000000   0.000000   0.540607   0.202568   0.000000
   19  S  1 YZ    0.000000   0.000000   0.000000   0.000000   0.000000
   20  O  2  S    0.000000  -0.061005  -0.050692   0.000474   0.000000
   21  O  2  S    0.000000   0.120819   0.129540  -0.081488   0.000000
   22  O  2  S    0.000000   0.628129   0.365726   0.088655   0.000000
   23  O  2  X    0.000000  -0.303565  -0.092043  -0.290315   0.000000
   24  O  2  Y    0.422187   0.000000   0.000000   0.000000  -0.508333
   25  O  2  Z    0.000000   0.015072   0.257960  -0.541238   0.000000
   26  O  2  X    0.000000   1.189493   0.864098   0.462896   0.000000
   27  O  2  Y   -0.089000   0.000000   0.000000   0.000000   0.812725
   28  O  2  Z    0.000000  -0.201788  -0.229689   0.689493   0.000000
   29  O  2 XX    0.000000   0.005454  -0.046733  -0.014133   0.000000
   30  O  2 YY    0.000000  -0.003147   0.016443   0.004205   0.000000
   31  O  2 ZZ    0.000000  -0.002306   0.030289   0.009928   0.000000
   32  O  2 XY   -0.065854   0.000000   0.000000   0.000000  -0.056823
   33  O  2 XZ    0.000000  -0.002717  -0.018069  -0.016607   0.000000
   34  O  2 YZ    0.018805   0.000000   0.000000   0.000000   0.013941
   35  O  3  S    0.000000  -0.061005   0.050692  -0.000474   0.000000
   36  O  3  S    0.000000   0.120819  -0.129540   0.081488   0.000000
   37  O  3  S    0.000000   0.628129  -0.365726  -0.088655   0.000000
   38  O  3  X    0.000000   0.303565  -0.092043  -0.290315   0.000000
   39  O  3  Y   -0.422187   0.000000   0.000000   0.000000   0.508333
   40  O  3  Z    0.000000   0.015072  -0.257960   0.541238   0.000000
   41  O  3  X    0.000000  -1.189493   0.864098   0.462896   0.000000
   42  O  3  Y    0.089000   0.000000   0.000000   0.000000  -0.812725
   43  O  3  Z    0.000000  -0.201788   0.229689  -0.689493   0.000000
   44  O  3 XX    0.000000   0.005454   0.046733   0.014133   0.000000
   45  O  3 YY    0.000000  -0.003147  -0.016443  -0.004205   0.000000
   46  O  3 ZZ    0.000000  -0.002306  -0.030289  -0.009928   0.000000
   47  O  3 XY   -0.065854   0.000000   0.000000   0.000000  -0.056823
   48  O  3 XZ    0.000000   0.002717  -0.018069  -0.016607   0.000000
   49  O  3 YZ   -0.018805   0.000000   0.000000   0.000000  -0.013941

                     31         32         33         34         35
                    0.8255     0.8581     0.8659     1.3295     1.5694
                     B1         A1         B2         A1         A1  
    1  S  1  S    0.000000   0.004509   0.000000  -0.004606   0.005433
    2  S  1  S    0.000000   0.024622   0.000000  -0.236677   0.016907
    3  S  1  S    0.000000   0.082855   0.000000  -0.342213   0.058015
    4  S  1  S    0.000000  -0.033523   0.000000   1.527223  -1.621299
    5  S  1  X   -0.117214   0.000000   0.000000   0.000000   0.000000
    6  S  1  Y    0.000000   0.000000  -0.026694   0.000000   0.000000
    7  S  1  Z    0.000000  -0.028218   0.000000  -0.047592  -0.010374
    8  S  1  X    0.204584   0.000000   0.000000   0.000000   0.000000
    9  S  1  Y    0.000000   0.000000   0.086398   0.000000   0.000000
   10  S  1  Z    0.000000   0.097930   0.000000   0.182500  -0.022308
   11  S  1  X    0.061244   0.000000   0.000000   0.000000   0.000000
   12  S  1  Y    0.000000   0.000000  -0.807378   0.000000   0.000000
   13  S  1  Z    0.000000  -0.796607   0.000000   0.146356  -0.311976
   14  S  1 XX    0.000000   0.100884   0.000000   1.244582   0.020701
   15  S  1 YY    0.000000   0.054734   0.000000  -0.655889  -0.001782
   16  S  1 ZZ    0.000000  -0.155618   0.000000  -0.588693  -0.018919
   17  S  1 XY    0.000000   0.000000   0.000000   0.000000   0.000000
   18  S  1 XZ    0.687018   0.000000   0.000000   0.000000   0.000000
   19  S  1 YZ    0.000000   0.000000  -0.121188   0.000000   0.000000
   20  O  2  S   -0.012971  -0.004890   0.000000   0.036004   0.014314
   21  O  2  S    0.094035   0.085416   0.000000   0.135267  -1.217429
   22  O  2  S    0.076823  -0.053342   0.000000  -1.032622   1.747624
   23  O  2  X    0.572788  -0.127361   0.000000  -0.575919  -0.163049
   24  O  2  Y    0.000000   0.000000  -0.625999   0.000000   0.000000
   25  O  2  Z   -0.134188  -0.605862   0.000000   0.184721  -0.014621
   26  O  2  X   -0.442542   0.131040   0.000000  -0.138593   0.683863
   27  O  2  Y    0.000000   0.000000   0.997317   0.000000   0.000000
   28  O  2  Z    0.373028   0.978231   0.000000  -0.018345   0.038083
   29  O  2 XX   -0.022606  -0.006406   0.000000   0.029065  -0.157391
   30  O  2 YY   -0.007297   0.003527   0.000000  -0.037501   0.068454
   31  O  2 ZZ    0.029903   0.002879   0.000000   0.008437   0.088937
   32  O  2 XY    0.000000   0.000000  -0.040089   0.000000   0.000000
   33  O  2 XZ   -0.077029  -0.038860   0.000000  -0.093099  -0.045254
   34  O  2 YZ    0.000000   0.000000  -0.000582   0.000000   0.000000
   35  O  3  S    0.012971  -0.004890   0.000000   0.036004   0.014314
   36  O  3  S   -0.094035   0.085416   0.000000   0.135267  -1.217429
   37  O  3  S   -0.076823  -0.053342   0.000000  -1.032622   1.747624
   38  O  3  X    0.572788   0.127361   0.000000   0.575919   0.163049
   39  O  3  Y    0.000000   0.000000  -0.625999   0.000000   0.000000
   40  O  3  Z    0.134188  -0.605862   0.000000   0.184721  -0.014621
   41  O  3  X   -0.442542  -0.131040   0.000000   0.138593  -0.683863
   42  O  3  Y    0.000000   0.000000   0.997317   0.000000   0.000000
   43  O  3  Z   -0.373028   0.978231   0.000000  -0.018345   0.038083
   44  O  3 XX    0.022606  -0.006406   0.000000   0.029065  -0.157391
   45  O  3 YY    0.007297   0.003527   0.000000  -0.037501   0.068454
   46  O  3 ZZ   -0.029903   0.002879   0.000000   0.008437   0.088937
   47  O  3 XY    0.000000   0.000000   0.040089   0.000000   0.000000
   48  O  3 XZ   -0.077029   0.038860   0.000000   0.093099   0.045254
   49  O  3 YZ    0.000000   0.000000  -0.000582   0.000000   0.000000

                     36         37         38         39         40
                    1.8295     2.0372     2.0372     2.0715     2.0762
                     B1         A2         B1         B2         A1  
    1  S  1  S    0.000000   0.000000   0.000000   0.000000   0.001482
    2  S  1  S    0.000000   0.000000   0.000000   0.000000   0.013385
    3  S  1  S    0.000000   0.000000   0.000000   0.000000   0.035600
    4  S  1  S    0.000000   0.000000   0.000000   0.000000  -0.013309
    5  S  1  X   -0.019665   0.000000   0.000280   0.000000   0.000000
    6  S  1  Y    0.000000   0.000000   0.000000  -0.026563   0.000000
    7  S  1  Z    0.000000   0.000000   0.000000   0.000000  -0.010840
    8  S  1  X    0.306605   0.000000  -0.002140   0.000000   0.000000
    9  S  1  Y    0.000000   0.000000   0.000000   0.099117   0.000000
   10  S  1  Z    0.000000   0.000000   0.000000   0.000000   0.044410
   11  S  1  X    1.808304   0.000000   0.026259   0.000000   0.000000
   12  S  1  Y    0.000000   0.000000   0.000000   0.018525   0.000000
   13  S  1  Z    0.000000   0.000000   0.000000   0.000000  -0.000227
   14  S  1 XX    0.000000   0.000000   0.000000   0.000000  -0.050834
   15  S  1 YY    0.000000   0.000000   0.000000   0.000000   0.152207
   16  S  1 ZZ    0.000000   0.000000   0.000000   0.000000  -0.101373
   17  S  1 XY    0.000000   0.018558   0.000000   0.000000   0.000000
   18  S  1 XZ    0.123713   0.000000  -0.017847   0.000000   0.000000
   19  S  1 YZ    0.000000   0.000000   0.000000  -0.118748   0.000000
   20  O  2  S   -0.009602   0.000000   0.000086   0.000000  -0.001404
   21  O  2  S   -1.298705   0.000000  -0.015798   0.000000   0.036094
   22  O  2  S    2.439136   0.000000   0.027392   0.000000  -0.021283
   23  O  2  X    0.039435   0.000000   0.000483   0.000000   0.026856
   24  O  2  Y    0.000000  -0.003804   0.000000   0.022687   0.000000
   25  O  2  Z    0.055227   0.000000   0.005055   0.000000   0.002156
   26  O  2  X    0.450838   0.000000   0.000253   0.000000  -0.024228
   27  O  2  Y    0.000000   0.007046   0.000000  -0.039478   0.000000
   28  O  2  Z   -0.228653   0.000000  -0.009824   0.000000  -0.007052
   29  O  2 XX   -0.205027   0.000000  -0.044688   0.000000  -0.031503
   30  O  2 YY    0.108342   0.000000   0.614584   0.000000  -0.596663
   31  O  2 ZZ    0.096685   0.000000  -0.569896   0.000000   0.628166
   32  O  2 XY    0.000000   0.180735   0.000000  -0.120048   0.000000
   33  O  2 XZ    0.107445   0.000000  -0.174504   0.000000   0.034044
   34  O  2 YZ    0.000000   0.683730   0.000000   0.699646   0.000000
   35  O  3  S    0.009602   0.000000  -0.000086   0.000000  -0.001404
   36  O  3  S    1.298705   0.000000   0.015798   0.000000   0.036094
   37  O  3  S   -2.439136   0.000000  -0.027392   0.000000  -0.021283
   38  O  3  X    0.039435   0.000000   0.000483   0.000000  -0.026856
   39  O  3  Y    0.000000   0.003804   0.000000   0.022687   0.000000
   40  O  3  Z   -0.055227   0.000000  -0.005055   0.000000   0.002156
   41  O  3  X    0.450838   0.000000   0.000253   0.000000   0.024228
   42  O  3  Y    0.000000  -0.007046   0.000000  -0.039478   0.000000
   43  O  3  Z    0.228653   0.000000   0.009824   0.000000  -0.007052
   44  O  3 XX    0.205027   0.000000   0.044688   0.000000  -0.031503
   45  O  3 YY   -0.108342   0.000000  -0.614584   0.000000  -0.596663
   46  O  3 ZZ   -0.096685   0.000000   0.569896   0.000000   0.628166
   47  O  3 XY    0.000000   0.180735   0.000000   0.120048   0.000000
   48  O  3 XZ    0.107445   0.000000  -0.174504   0.000000  -0.034044
   49  O  3 YZ    0.000000  -0.683730   0.000000   0.699646   0.000000

                     41         42         43         44         45
                    2.1347     2.1994     2.4486     2.4830     2.8838
                     B2         A1         B1         A2         B1  
    1  S  1  S    0.000000  -0.006916   0.000000   0.000000   0.000000
    2  S  1  S    0.000000  -0.050239   0.000000   0.000000   0.000000
    3  S  1  S    0.000000  -0.153211   0.000000   0.000000   0.000000
    4  S  1  S    0.000000  -0.123368   0.000000   0.000000   0.000000
    5  S  1  X    0.000000   0.000000   0.029837   0.000000  -0.226980
    6  S  1  Y    0.073252   0.000000   0.000000   0.000000   0.000000
    7  S  1  Z    0.000000   0.074279   0.000000   0.000000   0.000000
    8  S  1  X    0.000000   0.000000  -0.224549   0.000000   1.503591
    9  S  1  Y   -0.271444   0.000000   0.000000   0.000000   0.000000
   10  S  1  Z    0.000000  -0.296721   0.000000   0.000000   0.000000
   11  S  1  X    0.000000   0.000000  -0.103658   0.000000   0.534147
   12  S  1  Y   -0.109714   0.000000   0.000000   0.000000   0.000000
   13  S  1  Z    0.000000  -0.148560   0.000000   0.000000   0.000000
   14  S  1 XX    0.000000   0.225677   0.000000   0.000000   0.000000
   15  S  1 YY    0.000000  -0.005130   0.000000   0.000000   0.000000
   16  S  1 ZZ    0.000000  -0.220547   0.000000   0.000000   0.000000
   17  S  1 XY    0.000000   0.000000   0.000000   0.667374   0.000000
   18  S  1 XZ    0.000000   0.000000   0.613918   0.000000   0.364610
   19  S  1 YZ   -0.150899   0.000000   0.000000   0.000000   0.000000
   20  O  2  S    0.000000   0.003058   0.001156   0.000000  -0.037145
   21  O  2  S    0.000000  -0.233343   0.193673   0.000000  -0.627308
   22  O  2  S    0.000000   0.257227  -0.268947   0.000000   1.495564
   23  O  2  X    0.000000  -0.119557   0.062192   0.000000   0.081070
   24  O  2  Y   -0.072608   0.000000   0.000000  -0.009695   0.000000
   25  O  2  Z    0.000000  -0.051032  -0.027944   0.000000   0.008166
   26  O  2  X    0.000000   0.193963  -0.105201   0.000000   0.782981
   27  O  2  Y    0.164945   0.000000   0.000000   0.217655   0.000000
   28  O  2  Z    0.000000   0.166692   0.233027   0.000000  -0.119321
   29  O  2 XX    0.000000   0.309933   0.128695   0.000000   0.831165
   30  O  2 YY    0.000000  -0.141854   0.100413   0.000000  -0.399618
   31  O  2 ZZ    0.000000  -0.168079  -0.229107   0.000000  -0.431547
   32  O  2 XY    0.718450   0.000000   0.000000   0.757813   0.000000
   33  O  2 XZ    0.000000   0.652118   0.732162   0.000000  -0.112165
   34  O  2 YZ    0.115224   0.000000   0.000000  -0.193848   0.000000
   35  O  3  S    0.000000   0.003058  -0.001156   0.000000   0.037145
   36  O  3  S    0.000000  -0.233343  -0.193673   0.000000   0.627308
   37  O  3  S    0.000000   0.257227   0.268947   0.000000  -1.495564
   38  O  3  X    0.000000   0.119557   0.062192   0.000000   0.081070
   39  O  3  Y   -0.072608   0.000000   0.000000   0.009695   0.000000
   40  O  3  Z    0.000000  -0.051032   0.027944   0.000000  -0.008166
   41  O  3  X    0.000000  -0.193963  -0.105201   0.000000   0.782981
   42  O  3  Y    0.164945   0.000000   0.000000  -0.217655   0.000000
   43  O  3  Z    0.000000   0.166692  -0.233027   0.000000   0.119321
   44  O  3 XX    0.000000   0.309933  -0.128695   0.000000  -0.831165
   45  O  3 YY    0.000000  -0.141854  -0.100413   0.000000   0.399618
   46  O  3 ZZ    0.000000  -0.168079   0.229107   0.000000   0.431547
   47  O  3 XY   -0.718450   0.000000   0.000000   0.757813   0.000000
   48  O  3 XZ    0.000000  -0.652118   0.732162   0.000000  -0.112165
   49  O  3 YZ    0.115224   0.000000   0.000000   0.193848   0.000000

                     46
                    2.9086
                     A1  
    1  S  1  S   -0.059858
    2  S  1  S   -0.100360
    3  S  1  S   -0.887412
    4  S  1  S   -1.499882
    5  S  1  X    0.000000
    6  S  1  Y    0.000000
    7  S  1  Z    0.037801
    8  S  1  X    0.000000
    9  S  1  Y    0.000000
   10  S  1  Z   -0.267246
   11  S  1  X    0.000000
   12  S  1  Y    0.000000
   13  S  1  Z   -0.085281
   14  S  1 XX   -1.119374
   15  S  1 YY    0.569659
   16  S  1 ZZ    0.549714
   17  S  1 XY    0.000000
   18  S  1 XZ    0.000000
   19  S  1 YZ    0.000000
   20  O  2  S   -0.045496
   21  O  2  S   -0.509176
   22  O  2  S    1.584530
   23  O  2  X    0.208771
   24  O  2  Y    0.000000
   25  O  2  Z   -0.054891
   26  O  2  X    0.884767
   27  O  2  Y    0.000000
   28  O  2  Z   -0.179078
   29  O  2 XX    0.823613
   30  O  2 YY   -0.459233
   31  O  2 ZZ   -0.364380
   32  O  2 XY    0.000000
   33  O  2 XZ   -0.399025
   34  O  2 YZ    0.000000
   35  O  3  S   -0.045496
   36  O  3  S   -0.509176
   37  O  3  S    1.584530
   38  O  3  X   -0.208771
   39  O  3  Y    0.000000
   40  O  3  Z   -0.054891
   41  O  3  X   -0.884767
   42  O  3  Y    0.000000
   43  O  3  Z   -0.179078
   44  O  3 XX    0.823613
   45  O  3 YY   -0.459233
   46  O  3 ZZ   -0.364380
   47  O  3 XY    0.000000
   48  O  3 XZ    0.399025
   49  O  3 YZ    0.000000
 ...... END OF RHF CALCULATION ......
 STEP CPU TIME =     4.36 TOTAL CPU TIME =        4.5 (    0.1 MIN)
 TOTAL WALL CLOCK TIME=        4.5 SECONDS, CPU UTILIZATION IS 100.00%

     ---------------------------------------------------------------------
     PROPERTIES FOR THE PBE      DFT FUNCTIONAL (RHF  TYPE) DENSITY MATRIX
     ---------------------------------------------------------------------

          -----------------
          ENERGY COMPONENTS
          -----------------

         WAVEFUNCTION NORMALIZATION =       1.0000000000

                ONE ELECTRON ENERGY =    -971.9589925013
                TWO ELECTRON ENERGY =     314.7425934664
           NUCLEAR REPULSION ENERGY =     109.0459121189
                                      ------------------
                       TOTAL ENERGY =    -548.1704869160

 ELECTRON-ELECTRON POTENTIAL ENERGY =     314.7425934664
  NUCLEUS-ELECTRON POTENTIAL ENERGY =   -1520.0242518969
   NUCLEUS-NUCLEUS POTENTIAL ENERGY =     109.0459121189
                                      ------------------
             TOTAL POTENTIAL ENERGY =   -1096.2357463116
               TOTAL KINETIC ENERGY =     548.0652593956
                 VIRIAL RATIO (V/T) =       2.0001919982

          ---------------------------------------
          MULLIKEN AND LOWDIN POPULATION ANALYSES
          ---------------------------------------

     ATOMIC MULLIKEN POPULATION IN EACH MOLECULAR ORBITAL

                      1          2          3          4          5

                  2.000000   2.000000   2.000000   2.000000   2.000000

    1             2.000052   0.002331   0.000930   2.002815   1.999256
    2            -0.000026   0.998835   0.999535  -0.001407   0.000372
    3            -0.000026   0.998835   0.999535  -0.001407   0.000372

                      6          7          8          9         10

                  2.000000   2.000000   2.000000   2.000000   2.000000

    1             1.999979   1.999929   0.730539   0.392755   0.646709
    2             0.000010   0.000036   0.634730   0.803623   0.676646
    3             0.000010   0.000036   0.634730   0.803623   0.676646

                     11         12         13         14         15

                  2.000000   2.000000   2.000000   2.000000   2.000000

    1             0.942886   0.320307   0.931370   0.145643   0.146932
    2             0.528557   0.839846   0.534315   0.927179   0.926534
    3             0.528557   0.839846   0.534315   0.927179   0.926534

                     16

                  2.000000

    1             1.164832
    2             0.417584
    3             0.417584

               ----- POPULATIONS IN EACH AO -----
                             MULLIKEN      LOWDIN
              1  S  1  S      2.00025     1.99579
              2  S  1  S      2.01062     1.96168
              3  S  1  S      0.92701     0.56620
              4  S  1  S      1.11306     0.62886
              5  S  1  X      1.99714     1.95616
              6  S  1  Y      1.99627     1.95353
              7  S  1  Z      1.99670     1.95758
              8  S  1  X      0.70138     0.61704
              9  S  1  Y      0.62032     0.57824
             10  S  1  Z      0.71694     0.68114
             11  S  1  X      0.01142     0.23855
             12  S  1  Y      0.32136     0.38688
             13  S  1  Z      0.33809     0.41648
             14  S  1 XX      0.09783     0.40398
             15  S  1 YY      0.27666     0.33409
             16  S  1 ZZ      0.14564     0.33113
             17  S  1 XY      0.15163     0.17918
             18  S  1 XZ      0.00492     0.18529
             19  S  1 YZ      0.00000     0.00468
             20  O  2  S      1.99810     1.98067
             21  O  2  S      0.84102     0.65520
             22  O  2  S      0.99110     0.53568
             23  O  2  X      0.99720     0.96062
             24  O  2  Y      0.88090     0.83624
             25  O  2  Z      0.99147     0.95172
             26  O  2  X      0.39508     0.52839
             27  O  2  Y      0.56697     0.60271
             28  O  2  Z      0.60016     0.63587
             29  O  2 XX      0.00247     0.21049
             30  O  2 YY      0.00656     0.19799
             31  O  2 ZZ      0.00774     0.19586
             32  O  2 XY      0.00746     0.00962
             33  O  2 XZ      0.00014     0.01053
             34  O  2 YZ      0.00000     0.00019
             35  O  3  S      1.99810     1.98067
             36  O  3  S      0.84102     0.65520
             37  O  3  S      0.99110     0.53568
             38  O  3  X      0.99720     0.96062
             39  O  3  Y      0.88090     0.83624
             40  O  3  Z      0.99147     0.95172
             41  O  3  X      0.39508     0.52839
             42  O  3  Y      0.56697     0.60271
             43  O  3  Z      0.60016     0.63587
             44  O  3 XX      0.00247     0.21049
             45  O  3 YY      0.00656     0.19799
             46  O  3 ZZ      0.00774     0.19586
             47  O  3 XY      0.00746     0.00962
             48  O  3 XZ      0.00014     0.01053
             49  O  3 YZ      0.00000     0.00019

          ----- MULLIKEN ATOMIC OVERLAP POPULATIONS -----
          (OFF-DIAGONAL ELEMENTS NEED TO BE MULTIPLIED BY 2)

             1           2           3

    1   15.1168045
    2    0.1552287   8.1099333
    3    0.1552287   0.0212070   8.1099333

          TOTAL MULLIKEN AND LOWDIN ATOMIC POPULATIONS
       ATOM         MULL.POP.    CHARGE          LOW.POP.     CHARGE
    1 S            15.427262    0.572738        15.376475    0.623525
    2 O             8.286369   -0.286369         8.311762   -0.311762
    3 O             8.286369   -0.286369         8.311762   -0.311762

          MULLIKEN SPHERICAL HARMONIC POPULATIONS
       ATOM           S       P       D      F      G      H      I    TOTAL
    1 S             6.05    8.70    0.68   0.00   0.00   0.00   0.00   15.43
    2 O             3.83    4.43    0.02   0.00   0.00   0.00   0.00    8.29
    3 O             3.83    4.43    0.02   0.00   0.00   0.00   0.00    8.29

          -------------------------------
          BOND ORDER AND VALENCE ANALYSIS     BOND ORDER THRESHOLD=0.050
          -------------------------------

                   BOND                       BOND                       BOND
  ATOM PAIR DIST  ORDER      ATOM PAIR DIST  ORDER      ATOM PAIR DIST  ORDER
    1   2  1.400  1.915        1   3  1.400  1.915        2   3  2.757  0.271

                       TOTAL       BONDED        FREE
      ATOM            VALENCE     VALENCE     VALENCE
    1 S                 3.829       3.829       0.000
    2 O                 2.186       2.186       0.000
    3 O                 2.186       2.186       0.000

          ---------------------
          ELECTROSTATIC MOMENTS
          ---------------------

 POINT   1           X           Y           Z (BOHR)    CHARGE
                 0.000000    0.000000    0.000000        0.00 (A.U.)
         DX          DY          DZ         /D/  (DEBYE)
     0.000000    0.000000    0.161473    0.161473
 ...... END OF PROPERTY EVALUATION ......
 STEP CPU TIME =     0.01 TOTAL CPU TIME =        4.6 (    0.1 MIN)
 TOTAL WALL CLOCK TIME=        4.6 SECONDS, CPU UTILIZATION IS 100.00%
               580000  WORDS OF DYNAMIC MEMORY USED
 EXECUTION OF GAMESS TERMINATED NORMALLY Thu Feb 26 00:16:09 2015
 DDI: 263624 bytes (0.3 MB / 0 MWords) used by master data server.

 ----------------------------------------
 CPU timing information for all processes
 ========================================
 0: 4.530 + 0.27 = 4.558
 ----------------------------------------
 ddikick.x: exited gracefully.
----- accounting info -----
Files used on the master node dftfe.crc.nd.edu were:
-rw-r--r-- 1 pmehta1 campus   37475 Feb 26 00:16 /tmp/gamess.dat
-rw-r--r-- 1 pmehta1 campus     142 Feb 26 00:16 /tmp/gamess.F05
-rw-r--r-- 1 pmehta1 campus 2160288 Feb 26 00:16 /tmp/gamess.F08
-rw-r--r-- 1 pmehta1 campus 1220440 Feb 26 00:16 /tmp/gamess.F10
Thu Feb 26 00:16:12 EST 2015
0.253u 0.167s 0:07.99 5.1%	0+0k 0+96io 0pf+0w
