----- GAMESS execution script 'rungms' -----
This job is running on host dftfe.crc.nd.edu
under operating system Linux at Thu Feb 26 00:22:57 EST 2015
Available scratch disk space (Kbyte units) at beginning of the job is
Filesystem     1K-blocks     Used Available Use% Mounted on
/dev/sda2      147771864 22818984 117446448  17% /
GAMESS temporary binary files will be written to /tmp
GAMESS supplementary output files will be written to /tmp
Copying input file gamess.inp to your run's scratch directory...

 Distributed Data Interface kickoff program.
 Initiating 1 compute processes on 1 nodes to run the following command:
 /opt/crc/gamess/2012R1/gamess/gamess.00.x gamess 

          ******************************************************
          *         GAMESS VERSION =  1 MAY 2012 (R1)          *
          *             FROM IOWA STATE UNIVERSITY             *
          * M.W.SCHMIDT, K.K.BALDRIDGE, J.A.BOATZ, S.T.ELBERT, *
          *   M.S.GORDON, J.H.JENSEN, S.KOSEKI, N.MATSUNAGA,   *
          *          K.A.NGUYEN, S.J.SU, T.L.WINDUS,           *
          *       TOGETHER WITH M.DUPUIS, J.A.MONTGOMERY       *
          *         J.COMPUT.CHEM.  14, 1347-1363(1993)        *
          **************** 64 BIT LINUX VERSION ****************

  SINCE 1993, STUDENTS AND POSTDOCS WORKING AT IOWA STATE UNIVERSITY
  AND ALSO IN THEIR VARIOUS JOBS AFTER LEAVING ISU HAVE MADE IMPORTANT
  CONTRIBUTIONS TO THE CODE:
     IVANA ADAMOVIC, CHRISTINE AIKENS, YURI ALEXEEV, POOJA ARORA,
     ANDREY ASADCHEV, ROB BELL, PRADIPTA BANDYOPADHYAY, JONATHAN BENTZ,
     BRETT BODE, GALINA CHABAN, WEI CHEN, CHEOL HO CHOI, PAUL DAY,
     ALBERT DEFUSCO, TIM DUDLEY, DMITRI FEDOROV, GRAHAM FLETCHER,
     MARK FREITAG, KURT GLAESEMANN, DAN KEMP, GRANT MERRILL,
     NORIYUKI MINEZAWA, JONATHAN MULLIN, TAKESHI NAGATA,
     SEAN NEDD, HEATHER NETZLOFF, BOSILJKA NJEGIC, RYAN OLSON, MIKE PAK,
     JIM SHOEMAKER, LYUDMILA SLIPCHENKO, SAROM SOK, JIE SONG,
     TETSUYA TAKETSUGU, SIMON WEBB, SOOHAENG YOO, FEDERICO ZAHARIEV

  ADDITIONAL CODE HAS BEEN PROVIDED BY COLLABORATORS IN OTHER GROUPS:
     IOWA STATE UNIVERSITY:
          JOE IVANIC, LAIMUTIS BYTAUTAS, KLAUS RUEDENBERG
     UNIVERSITY OF TOKYO: KIMIHIKO HIRAO, TAKAHITO NAKAJIMA,
          TAKAO TSUNEDA, MUNEAKI KAMIYA, SUSUMU YANAGISAWA,
          KIYOSHI YAGI, MAHITO CHIBA, SEIKEN TOKURA, NAOAKI KAWAKAMI
     UNIVERSITY OF AARHUS: FRANK JENSEN
     UNIVERSITY OF IOWA: VISVALDAS KAIRYS, HUI LI
     NATIONAL INST. OF STANDARDS AND TECHNOLOGY: WALT STEVENS, DAVID GARMER
     UNIVERSITY OF PISA: BENEDETTA MENNUCCI, JACOPO TOMASI
     UNIVERSITY OF MEMPHIS: HENRY KURTZ, PRAKASHAN KORAMBATH
     UNIVERSITY OF ALBERTA: TOBY ZENG, MARIUSZ KLOBUKOWSKI
     UNIVERSITY OF NEW ENGLAND: MARK SPACKMAN
     MIE UNIVERSITY: HIROAKI UMEDA
     MICHIGAN STATE UNIVERSITY:
          KAROL KOWALSKI, MARTA WLOCH, JEFFREY GOUR, JESSE LUTZ, PIOTR PIECUCH
     UNIVERSITY OF SILESIA: MONIKA MUSIAL, STANISLAW KUCHARSKI
     FACULTES UNIVERSITAIRES NOTRE-DAME DE LA PAIX:
          OLIVIER QUINET, BENOIT CHAMPAGNE
     UNIVERSITY OF CALIFORNIA - SANTA BARBARA: BERNARD KIRTMAN
     INSTITUTE FOR MOLECULAR SCIENCE:
          KAZUYA ISHIMURA, MICHIO KATOUDA, AND SHIGERU NAGASE
     UNIVERSITY OF NOTRE DAME: DAN CHIPMAN
     KYUSHU UNIVERSITY:
          HARUYUKI NAKANO,
          FENG LONG GU, JACEK KORCHOWIEC, MARCIN MAKOWSKI, AND YURIKO AOKI,
          HIROTOSHI MORI AND EISAKU MIYOSHI
     PENNSYLVANIA STATE UNIVERSITY:
          TZVETELIN IORDANOV, CHET SWALINA, JONATHAN SKONE,
          SHARON HAMMES-SCHIFFER
     WASEDA UNIVERSITY:
          MASATO KOBAYASHI, TOMOKO AKAMA, TSUGUKI TOUMA,
          TAKESHI YOSHIKAWA, YASUHIRO IKABATA, HIROMI NAKAI
     UNIVERSITY OF NEBRASKA:
          PEIFENG SU, DEJUN SI, NANDUN THELLAMUREGE, YALI WANG, HUI LI
     UNIVERSITY OF ZURICH:
          ROBERTO PEVERATI, KIM BALDRIDGE
     N. COPERNICUS UNIVERSITY AND JACKSON STATE UNIVERSITY:
          MARIA BARYSZ

 EXECUTION OF GAMESS BEGUN Thu Feb 26 00:22:57 2015

            ECHO OF THE FIRST FEW INPUT CARDS -
 INPUT CARD> $BASIS GBASIS=PC1 $END                                                         
 INPUT CARD> $CONTRL COORD=ZMT ISPHER=1 RUNTYP=ENERGY DFTTYP=PBE $END                       
 INPUT CARD>                                                                                
 INPUT CARD> $DATA                                                                          
 INPUT CARD>Title                                                                           
 INPUT CARD>Cnv 2                                                                           
 INPUT CARD>                                                                                
 INPUT CARD>S                                                                               
 INPUT CARD>O 1 2.00                                                                        
 INPUT CARD>O 1 2.00 2 140.0                                                                
 INPUT CARD> $END                                                                           
    1000000 WORDS OF MEMORY AVAILABLE

     BASIS OPTIONS
     -------------
     GBASIS=PC1          IGAUSS=       0      POLAR=NONE    
     NDFUNC=       0     NFFUNC=       0     DIFFSP=       F
     NPFUNC=       0      DIFFS=       F     BASNAM=        


     RUN TITLE
     ---------
 Title                                                                           

 THE POINT GROUP OF THE MOLECULE IS CNV     
 THE ORDER OF THE PRINCIPAL AXIS IS     2

 YOUR FULLY SUBSTITUTED Z-MATRIX IS
 S   
 O      1   2.0000000
 O      1   2.0000000  2  140.0000

 THE MOMENTS OF INERTIA ARE (AMU-ANGSTROM**2)
 IXX=     7.482   IYY=   112.991   IZZ=   120.473

 ATOM      ATOMIC                      COORDINATES (BOHR)
           CHARGE         X                   Y                   Z
 S          16.0     0.0000000000        0.0000000000       -0.6465037140
 O           8.0    -3.5515231319        0.0000000000        0.6461449923
 O           8.0     3.5515231319        0.0000000000        0.6461449923

          INTERNUCLEAR DISTANCES (ANGS.)
          ------------------------------

                1 S          2 O          3 O     

   1 S       0.0000000    2.0000000 *  2.0000000 *
   2 O       2.0000000 *  0.0000000    3.7587705  
   3 O       2.0000000 *  3.7587705    0.0000000  

  * ... LESS THAN  3.000


     ATOMIC BASIS SET
     ----------------
 THE CONTRACTED PRIMITIVE FUNCTIONS HAVE BEEN UNNORMALIZED
 THE CONTRACTED BASIS FUNCTIONS ARE NOW NORMALIZED TO UNITY

  SHELL TYPE  PRIMITIVE        EXPONENT          CONTRACTION COEFFICIENT(S)

 S         

      1   S       1         55510.0000000    0.000587229760
      1   S       2          8326.7000000    0.004532413947
      1   S       3          1895.6000000    0.023265261648
      1   S       4           536.7700000    0.089696133027
      1   S       5           174.6700000    0.254098332277
      1   S       6            62.5780000    0.438665087637
      1   S       7            23.5730000    0.314547135094
      1   S       8             5.8908000    0.032727897102

      2   S       9          8326.7000000   -0.000019755715
      2   S      10          1895.6000000   -0.000043822381
      2   S      11           536.7700000   -0.001730264906
      2   S      12           174.6700000   -0.009381263460
      2   S      13            62.5780000   -0.064050766303
      2   S      14            23.5730000   -0.082478179196
      2   S      15             5.8908000    0.478342956889
      2   S      16             2.1852000    0.626896670208

      3   S      17          1895.6000000    0.000016227260
      3   S      18           536.7700000    0.000191135619
      3   S      19           174.6700000    0.001952069674
      3   S      20            62.5780000    0.010578701087
      3   S      21            23.5730000    0.022164934551
      3   S      22             5.8908000   -0.184968323118
      3   S      23             2.1852000   -0.480920750976
      3   S      24             0.4528200    1.243822243872

      4   S      25             0.1620200    1.000000000000

      5   P      26           395.4500000    0.004642761329
      5   P      27            92.8340000    0.036023396489
      5   P      28            29.2660000    0.149058869978
      5   P      29            10.5950000    0.360033266263
      5   P      30             4.0272000    0.455756476221
      5   P      31             1.5484000    0.206167664178

      6   P      32            92.8340000    0.000169901442
      6   P      33            29.2660000   -0.002541839934
      6   P      34            10.5950000   -0.007867614595
      6   P      35             4.0272000   -0.037231009184
      6   P      36             1.5484000    0.161417246830
      6   P      37             0.4613400    0.902230419976

      7   P      38             0.1313100    1.000000000000

      8   D      39             0.5500000    1.000000000000

 O         

     15   S      40          2306.7000000    0.005424388755
     15   S      41           347.1500000    0.040474749465
     15   S      42            78.8900000    0.180219634554
     15   S      43            21.8760000    0.462370311787
     15   S      44             6.6646000    0.454888396263

     16   S      45           347.1500000   -0.000655003786
     16   S      46            78.8900000   -0.005362052952
     16   S      47            21.8760000   -0.074902158894
     16   S      48             6.6646000   -0.181442579655
     16   S      49             1.0669000    1.102006874042

     17   S      50             0.3070000    1.000000000000

     18   P      51            17.0220000    0.068979967443
     18   P      52             3.6838000    0.351985516325
     18   P      53             0.9923400    0.724036547822

     19   P      54             0.2448700    1.000000000000

     20   D      55             1.0000000    1.000000000000

 TOTAL NUMBER OF BASIS SET SHELLS             =   20
 NUMBER OF CARTESIAN GAUSSIAN BASIS FUNCTIONS =   49
 NOTE: THIS RUN WILL RESTRICT THE MO VARIATION SPACE TO SPHERICAL HARMONICS.
 THE NUMBER OF ORBITALS KEPT IN THE VARIATIONAL SPACE WILL BE PRINTED LATER.
 NUMBER OF ELECTRONS                          =   32
 CHARGE OF MOLECULE                           =    0
 SPIN MULTIPLICITY                            =    1
 NUMBER OF OCCUPIED ORBITALS (ALPHA)          =   16
 NUMBER OF OCCUPIED ORBITALS (BETA )          =   16
 TOTAL NUMBER OF ATOMS                        =    3
 THE NUCLEAR REPULSION ENERGY IS       76.7449065642

     LEBEDEV GRID-BASED DFT OPTIONS
     ------------------------------
     DFTTYP=PBE     
     NRAD  =      96     NLEB  =     302
     NRAD0 =      24     NLEB0 =     110
     SWOFF =    5.00E-03 (PURE SCF -> DFT)
     SWITCH=    3.00E-04 (COARSE -> TIGHT GRID)
     THRESH=    0.00E+00 GTHRE=    1.00E+00

 GRIMME'S EMPIRICAL DISPERSION CORRECTION= F

     $CONTRL OPTIONS
     ---------------
 SCFTYP=RHF          RUNTYP=ENERGY       EXETYP=RUN     
 MPLEVL=       0     CITYP =NONE         CCTYP =NONE         VBTYP =NONE    
 DFTTYP=PBE          TDDFT =NONE    
 MULT  =       1     ICHARG=       0     NZVAR =       0     COORD =ZMT     
 PP    =NONE         RELWFN=NONE         LOCAL =NONE         NUMGRD=       F
 ISPHER=       1     NOSYM =       0     MAXIT =      30     UNITS =ANGS    
 PLTORB=       F     MOLPLT=       F     AIMPAC=       F     FRIEND=        
 NPRINT=       7     IREST =       0     GEOM  =INPUT   
 NORMF =       0     NORMP =       0     ITOL  =      20     ICUT  =       9
 INTTYP=BEST         GRDTYP=BEST         QMTTOL= 1.0E-06

     $SYSTEM OPTIONS
     ---------------
  REPLICATED MEMORY=     1000000 WORDS (ON EVERY NODE).
 DISTRIBUTED MEMDDI=           0 MILLION WORDS IN AGGREGATE,
 MEMDDI DISTRIBUTED OVER   1 PROCESSORS IS           0 WORDS/PROCESSOR.
 TOTAL MEMORY REQUESTED ON EACH PROCESSOR=     1000000 WORDS.
 TIMLIM=      525600.00 MINUTES, OR     365.0 DAYS.
 PARALL= F  BALTYP=  DLB     KDIAG=    0  COREFL= F
 MXSEQ2=     300 MXSEQ3=     150

          ----------------
          PROPERTIES INPUT
          ----------------

     MOMENTS            FIELD           POTENTIAL          DENSITY
 IEMOM =       1   IEFLD =       0   IEPOT =       0   IEDEN =       0
 WHERE =COMASS     WHERE =NUCLEI     WHERE =NUCLEI     WHERE =NUCLEI  
 OUTPUT=BOTH       OUTPUT=BOTH       OUTPUT=BOTH       OUTPUT=BOTH    
 IEMINT=       0   IEFINT=       0                     IEDINT=       0
                                                       MORB  =       0
          EXTRAPOLATION IN EFFECT
          DIIS IN EFFECT
 ORBITAL PRINTING OPTION: NPREO=     1    49     2     1

     -------------------------------
     INTEGRAL TRANSFORMATION OPTIONS
     -------------------------------
     NWORD  =            0
     CUTOFF = 1.0E-09     MPTRAN =       0
     DIRTRF =       F     AOINTS =DUP     

          ----------------------
          INTEGRAL INPUT OPTIONS
          ----------------------
 NOPK  =       1 NORDER=       0 SCHWRZ=       F

   --- ENCODED Z MATRIX ---
 COORD  TYPE   I   J   K   L   M   N
    1      1    3   1
    2      1    2   1
    3      2    2   1   3

 THE DETERMINANT OF THE G MATRIX IS 10**(    -4)

 THE DETERMINANT OF THE G MATRIX IS 10**(    -4)
 * * * WARNING * * *
 YOUR B MATRIX HAS A SMALL DETERMINANT.
 THIS SUGGESTS YOU MAY HAVE BADLY CHOSEN COORDINATES.

     ------------------------------------------
     THE POINT GROUP IS CNV, NAXIS= 2, ORDER= 4
     ------------------------------------------

 -- VARIATIONAL SPACE WILL BE RESTRICTED TO PURE SPHERICAL HARMONICS ONLY --
 AFTER EXCLUDING CONTAMINANT COMBINATIONS FROM THE CARTESIAN GAUSSIAN BASIS
 SET, THE NUMBER OF SPHERICAL HARMONICS KEPT IN THE VARIATION SPACE IS   46

     DIMENSIONS OF THE SYMMETRY SUBSPACES ARE
 A1  =   19     A2  =    5     B1  =   14     B2  =    8

 ..... DONE SETTING UP THE RUN .....
 STEP CPU TIME =     0.01 TOTAL CPU TIME =        0.0 (    0.0 MIN)
 TOTAL WALL CLOCK TIME=        0.0 SECONDS, CPU UTILIZATION IS  50.00%

          ********************
          1 ELECTRON INTEGRALS
          ********************
 ...... END OF ONE-ELECTRON INTEGRALS ......
 STEP CPU TIME =     0.00 TOTAL CPU TIME =        0.0 (    0.0 MIN)
 TOTAL WALL CLOCK TIME=        0.0 SECONDS, CPU UTILIZATION IS  50.00%

          -------------
          GUESS OPTIONS
          -------------
          GUESS =HUCKEL            NORB  =       0          NORDER=       0
          MIX   =       F          PRTMO =       F          PUNMO =       F
          TOLZ  = 1.0E-08          TOLE  = 1.0E-05
          SYMDEN=       F          PURIFY=       F

 INITIAL GUESS ORBITALS GENERATED BY HUCKEL   ROUTINE.
 HUCKEL GUESS REQUIRES     21583 WORDS.

 STATISTICS FOR GENERATION OF SYMMETRY ORBITAL -Q- MATRIX
 NUMBER OF CARTESIAN ATOMIC ORBITALS=         49
 NUMBER OF SPHERICAL CONTAMINANTS DROPPED=     3
 NUMBER OF LINEARLY DEPENDENT MOS DROPPED=     0
 TOTAL NUMBER OF MOS IN VARIATION SPACE=      46

 SYMMETRIES FOR INITIAL GUESS ORBITALS FOLLOW.   BOTH SET(S).
    16 ORBITALS ARE OCCUPIED (    7 CORE ORBITALS).
     8=?B1      9=?A1     10=?A1     11=B1      12=B2      13=A1      14=A2  
    15=B1      16=A1      17=B2      18=?A1     19=B1      20=A1      21=A1  
    22=A1      23=A1      24=A1      25=A1      26=A1  
 ...... END OF INITIAL ORBITAL SELECTION ......
 STEP CPU TIME =     0.02 TOTAL CPU TIME =        0.0 (    0.0 MIN)
 TOTAL WALL CLOCK TIME=        0.0 SECONDS, CPU UTILIZATION IS 100.00%

                    ----------------------
                    AO INTEGRAL TECHNOLOGY
                    ----------------------
     S,P,L SHELL ROTATED AXIS INTEGRALS, REPROGRAMMED BY
        KAZUYA ISHIMURA (IMS) AND JOSE SIERRA (SYNSTAR).
     S,P,D,L SHELL ROTATED AXIS INTEGRALS PROGRAMMED BY
        KAZUYA ISHIMURA (INSTITUTE FOR MOLECULAR SCIENCE).
     S,P,D,F,G SHELL TO TOTAL QUARTET ANGULAR MOMENTUM SUM 5,
        ERIC PROGRAM BY GRAHAM FLETCHER (ELORET AND NASA ADVANCED
        SUPERCOMPUTING DIVISION, AMES RESEARCH CENTER).
     S,P,D,F,G,L SHELL GENERAL RYS QUADRATURE PROGRAMMED BY
        MICHEL DUPUIS (PACIFIC NORTHWEST NATIONAL LABORATORY).

          --------------------
          2 ELECTRON INTEGRALS
          --------------------

 THE -PK- OPTION IS OFF, THE INTEGRALS ARE NOT IN SUPERMATRIX FORM.
 STORING   15000 INTEGRALS/RECORD ON DISK, USING 12 BYTES/INTEGRAL.
 TWO ELECTRON INTEGRAL EVALUATION REQUIRES   90606 WORDS OF MEMORY.
 II,JST,KST,LST =  1  1  1  1 NREC =         1 INTLOC =    1
 II,JST,KST,LST =  2  1  1  1 NREC =         1 INTLOC =    2
 II,JST,KST,LST =  3  1  1  1 NREC =         1 INTLOC =    7
 II,JST,KST,LST =  4  1  1  1 NREC =         1 INTLOC =   22
 II,JST,KST,LST =  5  1  1  1 NREC =         1 INTLOC =   56
 II,JST,KST,LST =  6  1  1  1 NREC =         1 INTLOC =  125
 II,JST,KST,LST =  7  1  1  1 NREC =         1 INTLOC =  329
 II,JST,KST,LST =  8  1  1  1 NREC =         1 INTLOC =  776
 II,JST,KST,LST =  9  1  1  1 NREC =         1 INTLOC = 2864
 II,JST,KST,LST = 10  1  1  1 NREC =         1 INTLOC = 2864
 II,JST,KST,LST = 11  1  1  1 NREC =         1 INTLOC = 2864
 II,JST,KST,LST = 12  1  1  1 NREC =         1 INTLOC = 2864
 II,JST,KST,LST = 13  1  1  1 NREC =         1 INTLOC = 2864
 II,JST,KST,LST = 14  1  1  1 NREC =         1 INTLOC = 2864
 II,JST,KST,LST = 15  1  1  1 NREC =         1 INTLOC = 2864
 II,JST,KST,LST = 16  1  1  1 NREC =         1 INTLOC = 4674
 II,JST,KST,LST = 17  1  1  1 NREC =         1 INTLOC = 7601
 II,JST,KST,LST = 18  1  1  1 NREC =         1 INTLOC =11804
 II,JST,KST,LST = 19  1  1  1 NREC =         2 INTLOC =11726
 II,JST,KST,LST = 20  1  1  1 NREC =         4 INTLOC =10718
 TOTAL NUMBER OF NONZERO TWO-ELECTRON INTEGRALS =              143827
         10 INTEGRAL RECORDS WERE STORED ON DISK FILE  8.
  ...... END OF TWO-ELECTRON INTEGRALS .....
 STEP CPU TIME =     0.14 TOTAL CPU TIME =        0.2 (    0.0 MIN)
 TOTAL WALL CLOCK TIME=        0.2 SECONDS, CPU UTILIZATION IS  94.44%

          --------------------------
               R-PBE SCF CALCULATION
          --------------------------

     NUCLEAR ENERGY =        76.7449065642
     MAXIT =   30     NPUNCH=    2
     EXTRAP=T  DAMP=F  SHIFT=F  RSTRCT=F  DIIS=T  DEM=F  SOSCF=F
         DENSITY MATRIX CONVERGENCE THRESHOLD=  1.00E-05
     COARSE -> FINE DFT GRID SWITCH THRESHOLD=  3.00E-04 (SWITCH IN $DFT)
                   HF -> DFT SWITCH THRESHOLD=  5.00E-03 (SWOFF IN $DFT)
     MEMORY REQUIRED FOR RHF ITERS=    183108 WORDS.

 DFT CODE IS SWITCHING FROM THE FINE GRID NRAD= 96,  NLEB=  302
                      TO THE COARSE GRID NRAD0= 24, NLEB0=  110

     EXCHANGE FUNCTIONAL   =PBE       
     CORRELATION FUNCTIONAL=PBE       
     DFT THRESHOLD         =.460E-07
     GRID CHANGE THRESHOLD =.300E-03
 FOR AN EULER-MACLAURIN QUADRATURE USING  96 RADIAL POINTS:
 SMALLEST GAUSSIAN PRIMITIVE EXPONENT=        0.1313100000 OF TYPE -P-
 ON ATOM NUMBER   1 HAS RADIAL NORMALIZATION=  1.000000
  LARGEST GAUSSIAN PRIMITIVE EXPONENT=    55510.0000000000 OF TYPE -S-
 ON ATOM NUMBER   1 HAS RADIAL NORMALIZATION=  0.999999
 DFT IS SWITCHED OFF, PERFORMING PURE SCF UNTIL SWOFF THRESHOLD IS REACHED.

 ITER EX DEM     TOTAL ENERGY        E CHANGE  DENSITY CHANGE    DIIS ERROR
   1  0  0     -545.4923577134  -545.4923577134   0.866652848   0.974469885
   2  1  0     -545.0104938674     0.4818638460   1.079550488   0.880324792
   3  2  0     -543.8201677713     1.1903260961   1.599907619   0.873159671
   4  3  0     -538.4054848744     5.4146828969   1.653977038   2.187901848
   5  0  0     -539.6968533098    -1.2913684353   0.805997427   1.212854561
          * * *   INITIATING DIIS PROCEDURE   * * *
   6  1  0     -545.6859104660    -5.9890571563   1.174064501   0.474133877
   7  2  0     -543.8638162747     1.8220941914   0.762896031   1.157073077
   8  3  0     -546.6581750542    -2.7943587795   0.101237154   0.163932845
   9  4  0     -546.7312784873    -0.0731034331   0.071314987   0.065070862
  10  5  0     -546.7599850647    -0.0287065774   0.050493783   0.026851660
  11  6  0     -546.7703500855    -0.0103650208   0.052634397   0.021141484
  12  7  0     -546.7785138128    -0.0081637273   0.121578791   0.019329547
  13  8  0     -546.7898166538    -0.0113028410   0.017601374   0.007912192
  14  9  0     -546.7899617994    -0.0001451456   0.018086276   0.002772603
  15 10  0     -546.7902126499    -0.0002508505   0.004620378   0.002407490
 CONVERGED TO SWOFF, SO DFT CALCULATION IS NOW SWITCHED ON.
          * * *   INITIATING DIIS PROCEDURE   * * *
  16 11  0     -547.9106513531    -1.1204387032   0.741601305   0.108146389
  17 12  0     -547.9128429037    -0.0021915506   0.485812882   0.217267954
  18 13  0     -547.8172024139     0.0956404898   0.204557061   0.364439313
  19 14  0     -548.0855879974    -0.2683855835   0.032689913   0.030823853
  20 15  0     -548.0890228723    -0.0034348749   0.005894135   0.011108886
  21 16  0     -548.0893280568    -0.0003051844   0.000798017   0.001980576
  22 17  0     -548.0893372252    -0.0000091685   0.001178044   0.001239978
  23 18  0     -548.0893405477    -0.0000033224   0.000106371   0.000073296
 DFT CODE IS SWITCHING BACK TO THE FINE GRID
          * * *   INITIATING DIIS PROCEDURE   * * *
  24 19  0     -548.0632614019     0.0260791457   0.023380745   0.014981773
  25 20  0     -548.0635778172    -0.0003164153   0.021318266   0.006368500
  26 21  0     -548.0621975296     0.0013802877   0.023611736   0.027925645
  27 22  0     -548.0636859304    -0.0014884008   0.003217974   0.003607705
  28 23  0     -548.0637255967    -0.0000396664   0.000178433   0.000193041
  29 24  0     -548.0637257728    -0.0000001761   0.000010873   0.000026998
  30 25  0     -548.0637257744    -0.0000000016   0.000008533   0.000011746

 SCF IS UNCONVERGED, TOO MANY ITERATIONS
     TIME TO FORM FOCK OPERATORS=       3.6 SECONDS (       0.1 SEC/ITER)
     TIME TO SOLVE SCF EQUATIONS=       0.0 SECONDS (       0.0 SEC/ITER)

 FINAL R-PBE ENERGY IS        0.0000000000 AFTER  30 ITERATIONS
 DFT EXCHANGE + CORRELATION ENERGY =       -42.0629177534
 TOTAL ELECTRON NUMBER             =        31.9999964738

          ------------
          EIGENVECTORS
          ------------

                      1          2          3          4          5
                  -88.2229   -18.8480   -18.8479    -7.8429    -5.8645
                     A1         B1         A1         A1         B1  
    1  S  1  S    1.002977   0.000000  -0.000063  -0.274139   0.000000
    2  S  1  S   -0.010266   0.000000  -0.000862   1.039656   0.000000
    3  S  1  S    0.001786   0.000000  -0.001761   0.040428   0.000000
    4  S  1  S   -0.001013   0.000000   0.004469  -0.013030   0.000000
    5  S  1  X    0.000000   0.000071   0.000000   0.000000   0.996927
    6  S  1  Y    0.000000   0.000000   0.000000   0.000000   0.000000
    7  S  1  Z    0.000045   0.000000  -0.000033   0.006649   0.000000
    8  S  1  X    0.000000   0.000066   0.000000   0.000000   0.008801
    9  S  1  Y    0.000000   0.000000   0.000000   0.000000   0.000000
   10  S  1  Z   -0.000003   0.000000   0.000050   0.000341   0.000000
   11  S  1  X    0.000000  -0.004829   0.000000   0.000000   0.000002
   12  S  1  Y    0.000000   0.000000   0.000000   0.000000   0.000000
   13  S  1  Z   -0.000050   0.000000   0.001337  -0.000548   0.000000
   14  S  1 XX   -0.000035   0.000000   0.001235  -0.000090   0.000000
   15  S  1 YY    0.000022   0.000000  -0.000770   0.000076   0.000000
   16  S  1 ZZ    0.000013   0.000000  -0.000465   0.000014   0.000000
   17  S  1 XY    0.000000   0.000000   0.000000   0.000000   0.000000
   18  S  1 XZ    0.000000  -0.001068   0.000000   0.000000   0.000358
   19  S  1 YZ    0.000000   0.000000   0.000000   0.000000   0.000000
   20  O  2  S   -0.000004   0.703231   0.703194  -0.000018  -0.000001
   21  O  2  S   -0.000032   0.024815   0.024340  -0.000147  -0.000021
   22  O  2  S    0.000123  -0.010019  -0.008606   0.001030   0.000133
   23  O  2  X    0.000010   0.000624   0.000646   0.000093   0.000051
   24  O  2  Y    0.000000   0.000000   0.000000   0.000000   0.000000
   25  O  2  Z   -0.000007  -0.000314  -0.000161  -0.000063  -0.000023
   26  O  2  X    0.000042  -0.001924  -0.001682   0.000191   0.000052
   27  O  2  Y    0.000000   0.000000   0.000000   0.000000   0.000000
   28  O  2  Z   -0.000003   0.001058   0.000337   0.000050  -0.000015
   29  O  2 XX   -0.000010  -0.000141  -0.000213  -0.000256   0.000018
   30  O  2 YY    0.000007   0.000119   0.000138   0.000161  -0.000012
   31  O  2 ZZ    0.000003   0.000022   0.000075   0.000095  -0.000006
   32  O  2 XY    0.000000   0.000000   0.000000   0.000000   0.000000
   33  O  2 XZ    0.000009   0.000162   0.000118   0.000192  -0.000016
   34  O  2 YZ    0.000000   0.000000   0.000000   0.000000   0.000000
   35  O  3  S   -0.000004  -0.703231   0.703194  -0.000018   0.000001
   36  O  3  S   -0.000032  -0.024815   0.024340  -0.000147   0.000021
   37  O  3  S    0.000123   0.010019  -0.008606   0.001030  -0.000133
   38  O  3  X   -0.000010   0.000624  -0.000646  -0.000093   0.000051
   39  O  3  Y    0.000000   0.000000   0.000000   0.000000   0.000000
   40  O  3  Z   -0.000007   0.000314  -0.000161  -0.000063   0.000023
   41  O  3  X   -0.000042  -0.001924   0.001682  -0.000191   0.000052
   42  O  3  Y    0.000000   0.000000   0.000000   0.000000   0.000000
   43  O  3  Z   -0.000003  -0.001058   0.000337   0.000050   0.000015
   44  O  3 XX   -0.000010   0.000141  -0.000213  -0.000256  -0.000018
   45  O  3 YY    0.000007  -0.000119   0.000138   0.000161   0.000012
   46  O  3 ZZ    0.000003  -0.000022   0.000075   0.000095   0.000006
   47  O  3 XY    0.000000   0.000000   0.000000   0.000000   0.000000
   48  O  3 XZ   -0.000009   0.000162  -0.000118  -0.000192  -0.000016
   49  O  3 YZ    0.000000   0.000000   0.000000   0.000000   0.000000

                      6          7          8          9         10
                   -5.8610    -5.8607    -0.8851    -0.8667    -0.6824
                     B2         A1         A1         B1         A1  
    1  S  1  S    0.000000   0.001807   0.032328   0.000000   0.080418
    2  S  1  S    0.000000  -0.006986  -0.097745   0.000000  -0.233415
    3  S  1  S    0.000000  -0.000225   0.187399   0.000000   0.493823
    4  S  1  S    0.000000   0.000002   0.173368   0.000000   0.480796
    5  S  1  X    0.000000   0.000000   0.000000   0.048120   0.000000
    6  S  1  Y    0.996957   0.000000   0.000000   0.000000   0.000000
    7  S  1  Z    0.000000   0.996943  -0.017651   0.000000   0.001403
    8  S  1  X    0.000000   0.000000   0.000000  -0.098961   0.000000
    9  S  1  Y    0.008740   0.000000   0.000000   0.000000   0.000000
   10  S  1  Z    0.000000   0.008710   0.037177   0.000000   0.000129
   11  S  1  X    0.000000   0.000000   0.000000  -0.033985   0.000000
   12  S  1  Y   -0.000155   0.000000   0.000000   0.000000   0.000000
   13  S  1  Z    0.000000  -0.000155   0.012185   0.000000  -0.008957
   14  S  1 XX    0.000000  -0.000208   0.023487   0.000000  -0.005647
   15  S  1 YY    0.000000  -0.000170  -0.014445   0.000000   0.003875
   16  S  1 ZZ    0.000000   0.000377  -0.009042   0.000000   0.001772
   17  S  1 XY    0.000000   0.000000   0.000000   0.000000   0.000000
   18  S  1 XZ    0.000000   0.000000   0.000000  -0.017802   0.000000
   19  S  1 YZ    0.000317   0.000000   0.000000   0.000000   0.000000
   20  O  2  S    0.000000  -0.000004  -0.144649  -0.157930   0.075722
   21  O  2  S    0.000000  -0.000037   0.293583   0.321741  -0.159717
   22  O  2  S    0.000000   0.000043   0.370940   0.409817  -0.227577
   23  O  2  X    0.000000  -0.000027   0.045360   0.037558   0.066760
   24  O  2  Y    0.000005   0.000000   0.000000   0.000000   0.000000
   25  O  2  Z    0.000000   0.000018  -0.016015  -0.014358  -0.022307
   26  O  2  X    0.000000   0.000039   0.025324   0.024378   0.030944
   27  O  2  Y   -0.000036   0.000000   0.000000   0.000000   0.000000
   28  O  2  Z    0.000000  -0.000062  -0.010236  -0.008739  -0.008311
   29  O  2 XX    0.000000  -0.000004   0.006842   0.006308   0.003883
   30  O  2 YY    0.000000  -0.000007  -0.002216  -0.001689  -0.003349
   31  O  2 ZZ    0.000000   0.000011  -0.004627  -0.004620  -0.000534
   32  O  2 XY   -0.000026   0.000000   0.000000   0.000000   0.000000
   33  O  2 XZ    0.000000  -0.000031  -0.003115  -0.002628  -0.003242
   34  O  2 YZ    0.000009   0.000000   0.000000   0.000000   0.000000
   35  O  3  S    0.000000  -0.000004  -0.144649   0.157930   0.075722
   36  O  3  S    0.000000  -0.000037   0.293583  -0.321741  -0.159717
   37  O  3  S    0.000000   0.000043   0.370940  -0.409817  -0.227577
   38  O  3  X    0.000000   0.000027  -0.045360   0.037558  -0.066760
   39  O  3  Y    0.000005   0.000000   0.000000   0.000000   0.000000
   40  O  3  Z    0.000000   0.000018  -0.016015   0.014358  -0.022307
   41  O  3  X    0.000000  -0.000039  -0.025324   0.024378  -0.030944
   42  O  3  Y   -0.000036   0.000000   0.000000   0.000000   0.000000
   43  O  3  Z    0.000000  -0.000062  -0.010236   0.008739  -0.008311
   44  O  3 XX    0.000000  -0.000004   0.006842  -0.006308   0.003883
   45  O  3 YY    0.000000  -0.000007  -0.002216   0.001689  -0.003349
   46  O  3 ZZ    0.000000   0.000011  -0.004627   0.004620  -0.000534
   47  O  3 XY    0.000026   0.000000   0.000000   0.000000   0.000000
   48  O  3 XZ    0.000000   0.000031   0.003115  -0.002628   0.003242
   49  O  3 YZ    0.000009   0.000000   0.000000   0.000000   0.000000

                     11         12         13         14         15
                   -0.4148    -0.3682    -0.3603    -0.3048    -0.2955
                     B1         A1         B2         A2         B1  
    1  S  1  S    0.000000  -0.010340   0.000000   0.000000   0.000000
    2  S  1  S    0.000000   0.035482   0.000000   0.000000   0.000000
    3  S  1  S    0.000000  -0.058911   0.000000   0.000000   0.000000
    4  S  1  S    0.000000  -0.125886   0.000000   0.000000   0.000000
    5  S  1  X   -0.188221   0.000000   0.000000   0.000000  -0.022587
    6  S  1  Y    0.000000   0.000000  -0.216508   0.000000   0.000000
    7  S  1  Z    0.000000  -0.214931   0.000000   0.000000   0.000000
    8  S  1  X    0.443679   0.000000   0.000000   0.000000   0.049607
    9  S  1  Y    0.000000   0.000000   0.511978   0.000000   0.000000
   10  S  1  Z    0.000000   0.507394   0.000000   0.000000   0.000000
   11  S  1  X    0.186247   0.000000   0.000000   0.000000   0.087548
   12  S  1  Y    0.000000   0.000000   0.361262   0.000000   0.000000
   13  S  1  Z    0.000000   0.335036   0.000000   0.000000   0.000000
   14  S  1 XX    0.000000   0.010869   0.000000   0.000000   0.000000
   15  S  1 YY    0.000000  -0.017797   0.000000   0.000000   0.000000
   16  S  1 ZZ    0.000000   0.006929   0.000000   0.000000   0.000000
   17  S  1 XY    0.000000   0.000000   0.000000  -0.051465   0.000000
   18  S  1 XZ    0.024487   0.000000   0.000000   0.000000  -0.048720
   19  S  1 YZ    0.000000   0.000000   0.014489   0.000000   0.000000
   20  O  2  S   -0.040006   0.013099   0.000000   0.000000  -0.003439
   21  O  2  S    0.091148  -0.027980   0.000000   0.000000   0.002170
   22  O  2  S    0.141501  -0.054136   0.000000   0.000000   0.034269
   23  O  2  X   -0.318584   0.259257   0.000000   0.000000   0.214654
   24  O  2  Y    0.000000   0.000000   0.276380   0.480052   0.000000
   25  O  2  Z    0.123176   0.120356   0.000000   0.000000   0.425281
   26  O  2  X   -0.205234   0.166426   0.000000   0.000000   0.161301
   27  O  2  Y    0.000000   0.000000   0.176784   0.335277   0.000000
   28  O  2  Z    0.080143   0.076125   0.000000   0.000000   0.292263
   29  O  2 XX   -0.010474   0.009377   0.000000   0.000000   0.005648
   30  O  2 YY    0.007372  -0.003283   0.000000   0.000000  -0.000280
   31  O  2 ZZ    0.003102  -0.006095   0.000000   0.000000  -0.005368
   32  O  2 XY    0.000000   0.000000   0.008968   0.007959   0.000000
   33  O  2 XZ    0.009025   0.002319   0.000000   0.000000   0.005738
   34  O  2 YZ    0.000000   0.000000  -0.003326  -0.003240   0.000000
   35  O  3  S    0.040006   0.013099   0.000000   0.000000   0.003439
   36  O  3  S   -0.091148  -0.027980   0.000000   0.000000  -0.002170
   37  O  3  S   -0.141501  -0.054136   0.000000   0.000000  -0.034269
   38  O  3  X   -0.318584  -0.259257   0.000000   0.000000   0.214654
   39  O  3  Y    0.000000   0.000000   0.276380  -0.480052   0.000000
   40  O  3  Z   -0.123176   0.120356   0.000000   0.000000  -0.425281
   41  O  3  X   -0.205234  -0.166426   0.000000   0.000000   0.161301
   42  O  3  Y    0.000000   0.000000   0.176784  -0.335277   0.000000
   43  O  3  Z   -0.080143   0.076125   0.000000   0.000000  -0.292263
   44  O  3 XX    0.010474   0.009377   0.000000   0.000000  -0.005648
   45  O  3 YY   -0.007372  -0.003283   0.000000   0.000000   0.000280
   46  O  3 ZZ   -0.003102  -0.006095   0.000000   0.000000   0.005368
   47  O  3 XY    0.000000   0.000000  -0.008968   0.007959   0.000000
   48  O  3 XZ    0.009025  -0.002319   0.000000   0.000000   0.005738
   49  O  3 YZ    0.000000   0.000000  -0.003326   0.003240   0.000000

                     16         17         18         19         20
                   -0.2872    -0.2592    -0.2289    -0.1240     0.3301
                     A1         B2         A1         B1         B1  
    1  S  1  S    0.016720   0.000000   0.017127   0.000000   0.000000
    2  S  1  S   -0.056475   0.000000  -0.044151   0.000000   0.000000
    3  S  1  S    0.098317   0.000000   0.120199   0.000000   0.000000
    4  S  1  S    0.217251   0.000000   0.167796   0.000000   0.000000
    5  S  1  X    0.000000   0.000000   0.000000  -0.238192   0.233514
    6  S  1  Y    0.000000  -0.188297   0.000000   0.000000   0.000000
    7  S  1  Z    0.020141   0.000000  -0.191530   0.000000   0.000000
    8  S  1  X    0.000000   0.000000   0.000000   0.605684  -0.946878
    9  S  1  Y    0.000000   0.464256   0.000000   0.000000   0.000000
   10  S  1  Z   -0.052310   0.000000   0.475606   0.000000   0.000000
   11  S  1  X    0.000000   0.000000   0.000000   0.584253   1.486735
   12  S  1  Y    0.000000   0.315795   0.000000   0.000000   0.000000
   13  S  1  Z    0.018296   0.000000   0.363901   0.000000   0.000000
   14  S  1 XX   -0.079024   0.000000  -0.049759   0.000000   0.000000
   15  S  1 YY    0.034445   0.000000   0.038495   0.000000   0.000000
   16  S  1 ZZ    0.044579   0.000000   0.011264   0.000000   0.000000
   17  S  1 XY    0.000000   0.000000   0.000000   0.000000   0.000000
   18  S  1 XZ    0.000000   0.000000   0.000000  -0.071450  -0.340993
   19  S  1 YZ    0.000000  -0.012743   0.000000   0.000000   0.000000
   20  O  2  S   -0.001518   0.000000   0.012098  -0.035130  -0.024904
   21  O  2  S    0.008861   0.000000  -0.024586   0.071376  -0.001513
   22  O  2  S   -0.017354   0.000000  -0.073692   0.227769   0.443287
   23  O  2  X   -0.192535   0.000000  -0.373953   0.309201  -0.203987
   24  O  2  Y    0.000000  -0.406756   0.000000   0.000000   0.000000
   25  O  2  Z    0.437971   0.000000  -0.160635  -0.214365  -0.071484
   26  O  2  X   -0.142668   0.000000  -0.274276   0.274199   0.319918
   27  O  2  Y    0.000000  -0.285131   0.000000   0.000000   0.000000
   28  O  2  Z    0.308406   0.000000  -0.110192  -0.167177  -0.089703
   29  O  2 XX   -0.001874   0.000000   0.000015  -0.001713   0.045726
   30  O  2 YY    0.003448   0.000000   0.000555   0.002573  -0.022141
   31  O  2 ZZ   -0.001574   0.000000  -0.000570  -0.000860  -0.023585
   32  O  2 XY    0.000000  -0.000572   0.000000   0.000000   0.000000
   33  O  2 XZ    0.008283   0.000000   0.002512   0.005083  -0.013887
   34  O  2 YZ    0.000000   0.000420   0.000000   0.000000   0.000000
   35  O  3  S   -0.001518   0.000000   0.012098   0.035130   0.024904
   36  O  3  S    0.008861   0.000000  -0.024586  -0.071376   0.001513
   37  O  3  S   -0.017354   0.000000  -0.073692  -0.227769  -0.443287
   38  O  3  X    0.192535   0.000000   0.373953   0.309201  -0.203987
   39  O  3  Y    0.000000  -0.406756   0.000000   0.000000   0.000000
   40  O  3  Z    0.437971   0.000000  -0.160635   0.214365   0.071484
   41  O  3  X    0.142668   0.000000   0.274276   0.274199   0.319918
   42  O  3  Y    0.000000  -0.285131   0.000000   0.000000   0.000000
   43  O  3  Z    0.308406   0.000000  -0.110192   0.167177   0.089703
   44  O  3 XX   -0.001874   0.000000   0.000015   0.001713  -0.045726
   45  O  3 YY    0.003448   0.000000   0.000555  -0.002573   0.022141
   46  O  3 ZZ   -0.001574   0.000000  -0.000570   0.000860   0.023585
   47  O  3 XY    0.000000   0.000572   0.000000   0.000000   0.000000
   48  O  3 XZ   -0.008283   0.000000  -0.002512   0.005083  -0.013887
   49  O  3 YZ    0.000000   0.000420   0.000000   0.000000   0.000000

                     21         22         23         24         25
                    0.3640     0.3684     0.4006     0.4597     0.4950
                     A1         B2         A1         A2         A1  
    1  S  1  S   -0.004576   0.000000  -0.102645   0.000000   0.009819
    2  S  1  S   -0.048056   0.000000  -0.360297   0.000000   0.036986
    3  S  1  S   -0.111389   0.000000  -1.574021   0.000000   0.154057
    4  S  1  S    0.245191   0.000000   1.798301   0.000000  -0.183383
    5  S  1  X    0.000000   0.000000   0.000000   0.000000   0.000000
    6  S  1  Y    0.000000   0.299261   0.000000   0.000000   0.000000
    7  S  1  Z    0.287582   0.000000  -0.050773   0.000000   0.009243
    8  S  1  X    0.000000   0.000000   0.000000   0.000000   0.000000
    9  S  1  Y    0.000000  -1.149619   0.000000   0.000000   0.000000
   10  S  1  Z   -1.109422   0.000000   0.189223   0.000000  -0.026310
   11  S  1  X    0.000000   0.000000   0.000000   0.000000   0.000000
   12  S  1  Y    0.000000   1.192302   0.000000   0.000000   0.000000
   13  S  1  Z    1.210271   0.000000  -0.128032   0.000000  -0.029429
   14  S  1 XX   -0.136690   0.000000  -0.438449   0.000000  -0.133258
   15  S  1 YY    0.131607   0.000000   0.232677   0.000000  -0.763334
   16  S  1 ZZ    0.005083   0.000000   0.205772   0.000000   0.896592
   17  S  1 XY    0.000000   0.000000   0.000000   0.866700   0.000000
   18  S  1 XZ    0.000000   0.000000   0.000000   0.000000   0.000000
   19  S  1 YZ    0.000000  -0.056484   0.000000   0.000000   0.000000
   20  O  2  S    0.006834   0.000000   0.010368   0.000000  -0.003539
   21  O  2  S    0.009614   0.000000  -0.011611   0.000000   0.017791
   22  O  2  S   -0.153164   0.000000  -0.137690   0.000000   0.010920
   23  O  2  X    0.030638   0.000000   0.049952   0.000000  -0.043485
   24  O  2  Y    0.000000  -0.118878   0.000000   0.304553   0.000000
   25  O  2  Z   -0.155759   0.000000  -0.091825   0.000000  -0.137801
   26  O  2  X   -0.124892   0.000000  -0.134201   0.000000   0.061479
   27  O  2  Y    0.000000  -0.039616   0.000000  -0.231098   0.000000
   28  O  2  Z    0.014537   0.000000   0.107529   0.000000   0.102787
   29  O  2 XX   -0.014907   0.000000  -0.025226   0.000000   0.011590
   30  O  2 YY    0.011549   0.000000   0.019540   0.000000  -0.006489
   31  O  2 ZZ    0.003358   0.000000   0.005687   0.000000  -0.005101
   32  O  2 XY    0.000000   0.002429   0.000000  -0.037187   0.000000
   33  O  2 XZ    0.016932   0.000000   0.029986   0.000000   0.015918
   34  O  2 YZ    0.000000  -0.001163   0.000000   0.015741   0.000000
   35  O  3  S    0.006834   0.000000   0.010368   0.000000  -0.003539
   36  O  3  S    0.009614   0.000000  -0.011611   0.000000   0.017791
   37  O  3  S   -0.153164   0.000000  -0.137690   0.000000   0.010920
   38  O  3  X   -0.030638   0.000000  -0.049952   0.000000   0.043485
   39  O  3  Y    0.000000  -0.118878   0.000000  -0.304553   0.000000
   40  O  3  Z   -0.155759   0.000000  -0.091825   0.000000  -0.137801
   41  O  3  X    0.124892   0.000000   0.134201   0.000000  -0.061479
   42  O  3  Y    0.000000  -0.039616   0.000000   0.231098   0.000000
   43  O  3  Z    0.014537   0.000000   0.107529   0.000000   0.102787
   44  O  3 XX   -0.014907   0.000000  -0.025226   0.000000   0.011590
   45  O  3 YY    0.011549   0.000000   0.019540   0.000000  -0.006489
   46  O  3 ZZ    0.003358   0.000000   0.005687   0.000000  -0.005101
   47  O  3 XY    0.000000  -0.002429   0.000000  -0.037187   0.000000
   48  O  3 XZ   -0.016932   0.000000  -0.029986   0.000000  -0.015918
   49  O  3 YZ    0.000000  -0.001163   0.000000  -0.015741   0.000000

                     26         27         28         29         30
                    0.4964     0.5589     0.6093     0.7797     0.7892
                     B2         B1         A1         B1         A2  
    1  S  1  S    0.000000   0.000000  -0.063409   0.000000   0.000000
    2  S  1  S    0.000000   0.000000  -0.243060   0.000000   0.000000
    3  S  1  S    0.000000   0.000000  -1.002663   0.000000   0.000000
    4  S  1  S    0.000000   0.000000   1.181247   0.000000   0.000000
    5  S  1  X    0.000000   0.113515   0.000000   0.005498   0.000000
    6  S  1  Y    0.011117   0.000000   0.000000   0.000000   0.000000
    7  S  1  Z    0.000000   0.000000   0.047072   0.000000   0.000000
    8  S  1  X    0.000000  -0.501839   0.000000  -0.007837   0.000000
    9  S  1  Y   -0.035597   0.000000   0.000000   0.000000   0.000000
   10  S  1  Z    0.000000   0.000000  -0.208798   0.000000   0.000000
   11  S  1  X    0.000000   0.941672   0.000000  -0.113365   0.000000
   12  S  1  Y   -0.005647   0.000000   0.000000   0.000000   0.000000
   13  S  1  Z    0.000000   0.000000   0.348095   0.000000   0.000000
   14  S  1 XX    0.000000   0.000000   0.756920   0.000000   0.000000
   15  S  1 YY    0.000000   0.000000  -0.540386   0.000000   0.000000
   16  S  1 ZZ    0.000000   0.000000  -0.216535   0.000000   0.000000
   17  S  1 XY    0.000000   0.000000   0.000000   0.000000   0.513734
   18  S  1 XZ    0.000000   0.813002   0.000000   0.421282   0.000000
   19  S  1 YZ    0.975117   0.000000   0.000000   0.000000   0.000000
   20  O  2  S    0.000000  -0.041119   0.042129  -0.002365   0.000000
   21  O  2  S    0.000000   0.219745  -0.277751   0.021458   0.000000
   22  O  2  S    0.000000   0.153950   0.007840  -0.035126   0.000000
   23  O  2  X    0.000000   0.123930  -0.143915  -0.148065   0.000000
   24  O  2  Y   -0.133205   0.000000   0.000000   0.000000  -0.566621
   25  O  2  Z    0.000000   0.183505   0.149512  -0.572298   0.000000
   26  O  2  X    0.000000   0.141554  -0.141097   0.208343   0.000000
   27  O  2  Y    0.109210   0.000000   0.000000   0.000000   0.705606
   28  O  2  Z    0.000000  -0.284619  -0.068187   0.689394   0.000000
   29  O  2 XX    0.000000  -0.023706   0.018181  -0.029791   0.000000
   30  O  2 YY    0.000000   0.003413  -0.018497   0.009603   0.000000
   31  O  2 ZZ    0.000000   0.020293   0.000316   0.020188   0.000000
   32  O  2 XY    0.017916   0.000000   0.000000   0.000000  -0.030524
   33  O  2 XZ    0.000000  -0.016001  -0.028763  -0.005683   0.000000
   34  O  2 YZ    0.001237   0.000000   0.000000   0.000000   0.012727
   35  O  3  S    0.000000   0.041119   0.042129   0.002365   0.000000
   36  O  3  S    0.000000  -0.219745  -0.277751  -0.021458   0.000000
   37  O  3  S    0.000000  -0.153950   0.007840   0.035126   0.000000
   38  O  3  X    0.000000   0.123930   0.143915  -0.148065   0.000000
   39  O  3  Y   -0.133205   0.000000   0.000000   0.000000   0.566621
   40  O  3  Z    0.000000  -0.183505   0.149512   0.572298   0.000000
   41  O  3  X    0.000000   0.141554   0.141097   0.208343   0.000000
   42  O  3  Y    0.109210   0.000000   0.000000   0.000000  -0.705606
   43  O  3  Z    0.000000   0.284619  -0.068187  -0.689394   0.000000
   44  O  3 XX    0.000000   0.023706   0.018181   0.029791   0.000000
   45  O  3 YY    0.000000  -0.003413  -0.018497  -0.009603   0.000000
   46  O  3 ZZ    0.000000  -0.020293   0.000316  -0.020188   0.000000
   47  O  3 XY   -0.017916   0.000000   0.000000   0.000000  -0.030524
   48  O  3 XZ    0.000000  -0.016001   0.028763  -0.005683   0.000000
   49  O  3 YZ    0.001237   0.000000   0.000000   0.000000  -0.012727

                     31         32         33         34         35
                    0.7939     0.8045     0.8251     0.8259     1.4544
                     B2         A1         A1         B1         A1  
    1  S  1  S    0.000000  -0.006668   0.008518   0.000000   0.026865
    2  S  1  S    0.000000   0.030569  -0.031034   0.000000   0.243980
    3  S  1  S    0.000000  -0.038230   0.059827   0.000000   0.602841
    4  S  1  S    0.000000  -0.262861   0.306873   0.000000  -1.250242
    5  S  1  X    0.000000   0.000000   0.000000  -0.113720   0.000000
    6  S  1  Y   -0.039526   0.000000   0.000000   0.000000   0.000000
    7  S  1  Z    0.000000  -0.004594  -0.050379   0.000000   0.004269
    8  S  1  X    0.000000   0.000000   0.000000   0.492545   0.000000
    9  S  1  Y    0.200397   0.000000   0.000000   0.000000   0.000000
   10  S  1  Z    0.000000   0.045246   0.233659   0.000000   0.011830
   11  S  1  X    0.000000   0.000000   0.000000  -0.051375   0.000000
   12  S  1  Y   -0.480669   0.000000   0.000000   0.000000   0.000000
   13  S  1  Z    0.000000  -0.374034  -0.241937   0.000000  -0.355005
   14  S  1 XX    0.000000   0.085584   0.350108   0.000000  -0.423800
   15  S  1 YY    0.000000   0.114873  -0.099219   0.000000   0.269367
   16  S  1 ZZ    0.000000  -0.200457  -0.250889   0.000000   0.154434
   17  S  1 XY    0.000000   0.000000   0.000000   0.000000   0.000000
   18  S  1 XZ    0.000000   0.000000   0.000000   0.128609   0.000000
   19  S  1 YZ   -0.219356   0.000000   0.000000   0.000000   0.000000
   20  O  2  S    0.000000  -0.016528   0.022326  -0.019198   0.022419
   21  O  2  S    0.000000   0.178076  -0.246555   0.230171  -1.059043
   22  O  2  S    0.000000  -0.083394   0.176147  -0.183472   1.280004
   23  O  2  X    0.000000  -0.514695   0.313083  -0.566690  -0.165141
   24  O  2  Y   -0.614612   0.000000   0.000000   0.000000   0.000000
   25  O  2  Z    0.000000  -0.333888  -0.481992   0.185318   0.019228
   26  O  2  X    0.000000   0.703637  -0.474491   0.768050   0.515107
   27  O  2  Y    0.799769   0.000000   0.000000   0.000000   0.000000
   28  O  2  Z    0.000000   0.424550   0.656940  -0.246990  -0.094166
   29  O  2 XX    0.000000  -0.015813   0.028387  -0.039749  -0.152433
   30  O  2 YY    0.000000   0.004411  -0.023629   0.023205   0.094134
   31  O  2 ZZ    0.000000   0.011402  -0.004758   0.016544   0.058300
   32  O  2 XY   -0.018673   0.000000   0.000000   0.000000   0.000000
   33  O  2 XZ    0.000000  -0.013407  -0.041717   0.023129   0.093107
   34  O  2 YZ    0.004140   0.000000   0.000000   0.000000   0.000000
   35  O  3  S    0.000000  -0.016528   0.022326   0.019198   0.022419
   36  O  3  S    0.000000   0.178076  -0.246555  -0.230171  -1.059043
   37  O  3  S    0.000000  -0.083394   0.176147   0.183472   1.280004
   38  O  3  X    0.000000   0.514695  -0.313083  -0.566690   0.165141
   39  O  3  Y   -0.614612   0.000000   0.000000   0.000000   0.000000
   40  O  3  Z    0.000000  -0.333888  -0.481992  -0.185318   0.019228
   41  O  3  X    0.000000  -0.703637   0.474491   0.768050  -0.515107
   42  O  3  Y    0.799769   0.000000   0.000000   0.000000   0.000000
   43  O  3  Z    0.000000   0.424550   0.656940   0.246990  -0.094166
   44  O  3 XX    0.000000  -0.015813   0.028387   0.039749  -0.152433
   45  O  3 YY    0.000000   0.004411  -0.023629  -0.023205   0.094134
   46  O  3 ZZ    0.000000   0.011402  -0.004758  -0.016544   0.058300
   47  O  3 XY    0.018673   0.000000   0.000000   0.000000   0.000000
   48  O  3 XZ    0.000000   0.013407   0.041717   0.023129  -0.093107
   49  O  3 YZ    0.004140   0.000000   0.000000   0.000000   0.000000

                     36         37         38         39         40
                    1.5529     2.0813     2.0822     2.0827     2.0859
                     B1         A2         B1         B2         A1  
    1  S  1  S    0.000000   0.000000   0.000000   0.000000  -0.000777
    2  S  1  S    0.000000   0.000000   0.000000   0.000000  -0.010298
    3  S  1  S    0.000000   0.000000   0.000000   0.000000  -0.021783
    4  S  1  S    0.000000   0.000000   0.000000   0.000000   0.050827
    5  S  1  X   -0.007792   0.000000   0.001622   0.000000   0.000000
    6  S  1  Y    0.000000   0.000000   0.000000  -0.002561   0.000000
    7  S  1  Z    0.000000   0.000000   0.000000   0.000000  -0.000162
    8  S  1  X   -0.070038   0.000000   0.004367   0.000000   0.000000
    9  S  1  Y    0.000000   0.000000   0.000000   0.031659   0.000000
   10  S  1  Z    0.000000   0.000000   0.000000   0.000000  -0.008065
   11  S  1  X    1.137675   0.000000  -0.065772   0.000000   0.000000
   12  S  1  Y    0.000000   0.000000   0.000000  -0.105495   0.000000
   13  S  1  Z    0.000000   0.000000   0.000000   0.000000   0.047300
   14  S  1 XX    0.000000   0.000000   0.000000   0.000000   0.003079
   15  S  1 YY    0.000000   0.000000   0.000000   0.000000  -0.030862
   16  S  1 ZZ    0.000000   0.000000   0.000000   0.000000   0.027783
   17  S  1 XY    0.000000   0.081636   0.000000   0.000000   0.000000
   18  S  1 XZ    0.348478   0.000000   0.046523   0.000000   0.000000
   19  S  1 YZ    0.000000   0.000000   0.000000  -0.053504   0.000000
   20  O  2  S    0.017282   0.000000  -0.000031   0.000000   0.000343
   21  O  2  S   -1.151076   0.000000   0.029952   0.000000   0.025514
   22  O  2  S    1.555095   0.000000  -0.050020   0.000000  -0.039785
   23  O  2  X   -0.129836   0.000000   0.003063   0.000000   0.009480
   24  O  2  Y    0.000000  -0.010775   0.000000  -0.020757   0.000000
   25  O  2  Z    0.089435   0.000000  -0.011786   0.000000   0.005858
   26  O  2  X    0.493274   0.000000  -0.015170   0.000000  -0.027183
   27  O  2  Y    0.000000   0.014738   0.000000   0.038713   0.000000
   28  O  2  Z   -0.279388   0.000000   0.020794   0.000000  -0.008677
   29  O  2 XX   -0.125252   0.000000   0.275058   0.000000  -0.188430
   30  O  2 YY    0.076244   0.000000  -0.482991   0.000000   0.603887
   31  O  2 ZZ    0.049008   0.000000   0.207933   0.000000  -0.415458
   32  O  2 XY    0.000000   0.596745   0.000000   0.662813   0.000000
   33  O  2 XZ    0.089456   0.000000   0.515188   0.000000  -0.343774
   34  O  2 YZ    0.000000   0.379117   0.000000   0.250309   0.000000
   35  O  3  S   -0.017282   0.000000   0.000031   0.000000   0.000343
   36  O  3  S    1.151076   0.000000  -0.029952   0.000000   0.025514
   37  O  3  S   -1.555095   0.000000   0.050020   0.000000  -0.039785
   38  O  3  X   -0.129836   0.000000   0.003063   0.000000  -0.009480
   39  O  3  Y    0.000000   0.010775   0.000000  -0.020757   0.000000
   40  O  3  Z   -0.089435   0.000000   0.011786   0.000000   0.005858
   41  O  3  X    0.493274   0.000000  -0.015170   0.000000   0.027183
   42  O  3  Y    0.000000  -0.014738   0.000000   0.038713   0.000000
   43  O  3  Z    0.279388   0.000000  -0.020794   0.000000  -0.008677
   44  O  3 XX    0.125252   0.000000  -0.275058   0.000000  -0.188430
   45  O  3 YY   -0.076244   0.000000   0.482991   0.000000   0.603887
   46  O  3 ZZ   -0.049008   0.000000  -0.207933   0.000000  -0.415458
   47  O  3 XY    0.000000   0.596745   0.000000  -0.662813   0.000000
   48  O  3 XZ    0.089456   0.000000   0.515188   0.000000   0.343774
   49  O  3 YZ    0.000000  -0.379117   0.000000   0.250309   0.000000

                     41         42         43         44         45
                    2.0898     2.0932     2.0947     2.1028     2.2178
                     B2         B1         A2         A1         B1  
    1  S  1  S    0.000000   0.000000   0.000000  -0.001741   0.000000
    2  S  1  S    0.000000   0.000000   0.000000  -0.025369   0.000000
    3  S  1  S    0.000000   0.000000   0.000000  -0.051882   0.000000
    4  S  1  S    0.000000   0.000000   0.000000   0.123902   0.000000
    5  S  1  X    0.000000  -0.010414   0.000000   0.000000  -0.074859
    6  S  1  Y    0.002047   0.000000   0.000000   0.000000   0.000000
    7  S  1  Z    0.000000   0.000000   0.000000   0.000026   0.000000
    8  S  1  X    0.000000   0.018832   0.000000   0.000000   0.219074
    9  S  1  Y   -0.026447   0.000000   0.000000   0.000000   0.000000
   10  S  1  Z    0.000000   0.000000   0.000000  -0.030608   0.000000
   11  S  1  X    0.000000   0.117960   0.000000   0.000000   0.332246
   12  S  1  Y    0.088993   0.000000   0.000000   0.000000   0.000000
   13  S  1  Z    0.000000   0.000000   0.000000   0.157186   0.000000
   14  S  1 XX    0.000000   0.000000   0.000000  -0.022894   0.000000
   15  S  1 YY    0.000000   0.000000   0.000000  -0.035230   0.000000
   16  S  1 ZZ    0.000000   0.000000   0.000000   0.058124   0.000000
   17  S  1 XY    0.000000   0.000000  -0.116513   0.000000   0.000000
   18  S  1 XZ    0.000000  -0.043944   0.000000   0.000000   0.287294
   19  S  1 YZ    0.022323   0.000000   0.000000   0.000000   0.000000
   20  O  2  S    0.000000  -0.000661   0.000000  -0.000545  -0.001010
   21  O  2  S    0.000000  -0.068412   0.000000   0.065042  -0.314475
   22  O  2  S    0.000000   0.111921   0.000000  -0.095967   0.463160
   23  O  2  X    0.000000  -0.013274   0.000000   0.026717  -0.088411
   24  O  2  Y    0.016786   0.000000   0.015106   0.000000   0.000000
   25  O  2  Z    0.000000   0.019807   0.000000   0.021835   0.031012
   26  O  2  X    0.000000   0.045632   0.000000  -0.070153   0.265457
   27  O  2  Y   -0.030494   0.000000  -0.020869   0.000000   0.000000
   28  O  2  Z    0.000000  -0.038343   0.000000  -0.034412  -0.101275
   29  O  2 XX    0.000000  -0.188716   0.000000  -0.423385   0.618010
   30  O  2 YY    0.000000  -0.411232   0.000000  -0.118447  -0.308438
   31  O  2 ZZ    0.000000   0.599948   0.000000   0.541831  -0.309572
   32  O  2 XY   -0.252593   0.000000  -0.378718   0.000000   0.000000
   33  O  2 XZ    0.000000  -0.351718   0.000000  -0.422345  -0.328776
   34  O  2 YZ    0.661650   0.000000   0.596800   0.000000   0.000000
   35  O  3  S    0.000000   0.000661   0.000000  -0.000545   0.001010
   36  O  3  S    0.000000   0.068412   0.000000   0.065042   0.314475
   37  O  3  S    0.000000  -0.111921   0.000000  -0.095967  -0.463160
   38  O  3  X    0.000000  -0.013274   0.000000  -0.026717  -0.088411
   39  O  3  Y    0.016786   0.000000  -0.015106   0.000000   0.000000
   40  O  3  Z    0.000000  -0.019807   0.000000   0.021835  -0.031012
   41  O  3  X    0.000000   0.045632   0.000000   0.070153   0.265457
   42  O  3  Y   -0.030494   0.000000   0.020869   0.000000   0.000000
   43  O  3  Z    0.000000   0.038343   0.000000  -0.034412   0.101275
   44  O  3 XX    0.000000   0.188716   0.000000  -0.423385  -0.618010
   45  O  3 YY    0.000000   0.411232   0.000000  -0.118447   0.308438
   46  O  3 ZZ    0.000000  -0.599948   0.000000   0.541831   0.309572
   47  O  3 XY    0.252593   0.000000  -0.378718   0.000000   0.000000
   48  O  3 XZ    0.000000  -0.351718   0.000000   0.422345  -0.328776
   49  O  3 YZ    0.661650   0.000000  -0.596800   0.000000   0.000000

                     46
                    2.2892
                     A1  
    1  S  1  S   -0.005966
    2  S  1  S   -0.142919
    3  S  1  S   -0.251599
    4  S  1  S    0.690453
    5  S  1  X    0.000000
    6  S  1  Y    0.000000
    7  S  1  Z   -0.028748
    8  S  1  X    0.000000
    9  S  1  Y    0.000000
   10  S  1  Z    0.087566
   11  S  1  X    0.000000
   12  S  1  Y    0.000000
   13  S  1  Z    0.124831
   14  S  1 XX    0.432641
   15  S  1 YY   -0.257709
   16  S  1 ZZ   -0.174932
   17  S  1 XY    0.000000
   18  S  1 XZ    0.000000
   19  S  1 YZ    0.000000
   20  O  2  S    0.002345
   21  O  2  S    0.337435
   22  O  2  S   -0.480778
   23  O  2  X    0.096513
   24  O  2  Y    0.000000
   25  O  2  Z   -0.036223
   26  O  2  X   -0.317232
   27  O  2  Y    0.000000
   28  O  2  Z    0.110658
   29  O  2 XX   -0.528351
   30  O  2 YY    0.343479
   31  O  2 ZZ    0.184872
   32  O  2 XY    0.000000
   33  O  2 XZ    0.449972
   34  O  2 YZ    0.000000
   35  O  3  S    0.002345
   36  O  3  S    0.337435
   37  O  3  S   -0.480778
   38  O  3  X   -0.096513
   39  O  3  Y    0.000000
   40  O  3  Z   -0.036223
   41  O  3  X    0.317232
   42  O  3  Y    0.000000
   43  O  3  Z    0.110658
   44  O  3 XX   -0.528351
   45  O  3 YY    0.343479
   46  O  3 ZZ    0.184872
   47  O  3 XY    0.000000
   48  O  3 XZ   -0.449972
   49  O  3 YZ    0.000000
 ...... END OF RHF CALCULATION ......
 STEP CPU TIME =     3.61 TOTAL CPU TIME =        3.8 (    0.1 MIN)
 TOTAL WALL CLOCK TIME=        3.8 SECONDS, CPU UTILIZATION IS  99.74%

     ---------------------------------------------------------------------
     PROPERTIES FOR THE PBE      DFT FUNCTIONAL (RHF  TYPE) DENSITY MATRIX
     ---------------------------------------------------------------------

          -----------------
          ENERGY COMPONENTS
          -----------------

         WAVEFUNCTION NORMALIZATION =       1.0000000000

                ONE ELECTRON ENERGY =    -908.0990983458
                TWO ELECTRON ENERGY =     831.3541917816
           NUCLEAR REPULSION ENERGY =      76.7449065642
                                      ------------------
                       TOTAL ENERGY =       0.0000000000

 ELECTRON-ELECTRON POTENTIAL ENERGY =     831.3541917816
  NUCLEUS-ELECTRON POTENTIAL ENERGY =   -1454.6026467482
   NUCLEUS-NUCLEUS POTENTIAL ENERGY =      76.7449065642
                                      ------------------
             TOTAL POTENTIAL ENERGY =    -546.5035484024
               TOTAL KINETIC ENERGY =     546.5035484024
                 VIRIAL RATIO (V/T) =       1.0000000000

          ---------------------------------------
          MULLIKEN AND LOWDIN POPULATION ANALYSES
          ---------------------------------------

     ATOMIC MULLIKEN POPULATION IN EACH MOLECULAR ORBITAL

                      1          2          3          4          5

                  2.000000   2.000000   2.000000   2.000000   2.000000

    1             1.999998   0.000594   0.000230   1.999917   2.000013
    2             0.000001   0.999703   0.999885   0.000042  -0.000007
    3             0.000001   0.999703   0.999885   0.000042  -0.000007

                      6          7          8          9         10

                  2.000000   2.000000   2.000000   2.000000   2.000000

    1             2.000001   1.999998   0.351869   0.092414   1.552728
    2            -0.000001   0.000001   0.824066   0.953793   0.223636
    3            -0.000001   0.000001   0.824066   0.953793   0.223636

                     11         12         13         14         15

                  2.000000   2.000000   2.000000   2.000000   2.000000

    1             0.739169   1.219752   1.263635   0.014992   0.040958
    2             0.630416   0.390124   0.368182   0.992504   0.979521
    3             0.630416   0.390124   0.368182   0.992504   0.979521

                     16

                  2.000000

    1             0.098678
    2             0.950661
    3             0.950661

               ----- POPULATIONS IN EACH AO -----
                             MULLIKEN      LOWDIN
              1  S  1  S      2.00021     1.99614
              2  S  1  S      2.01102     1.97629
              3  S  1  S      1.03107     0.66896
              4  S  1  S      0.92281     0.57997
              5  S  1  X      1.99601     1.95196
              6  S  1  Y      1.99640     1.95735
              7  S  1  Z      1.99643     1.95739
              8  S  1  X      0.60379     0.56650
              9  S  1  Y      0.70953     0.69606
             10  S  1  Z      0.71416     0.69693
             11  S  1  X      0.25156     0.37866
             12  S  1  Y      0.55676     0.60043
             13  S  1  Z      0.49922     0.55693
             14  S  1 XX      0.01315     0.23850
             15  S  1 YY      0.03509     0.26576
             16  S  1 ZZ      0.01499     0.26173
             17  S  1 XY      0.02178     0.01697
             18  S  1 XZ      0.00096     0.02746
             19  S  1 YZ      0.00000     0.00091
             20  O  2  S      1.99799     1.98177
             21  O  2  S      0.86734     0.67821
             22  O  2  S      1.11851     0.63618
             23  O  2  X      0.71811     0.68277
             24  O  2  Y      0.82333     0.79566
             25  O  2  Z      1.07937     1.04852
             26  O  2  X      0.48506     0.54760
             27  O  2  Y      0.53640     0.56732
             28  O  2  Z      0.68169     0.71925
             29  O  2 XX      0.00066     0.21631
             30  O  2 YY      0.00184     0.21619
             31  O  2 ZZ      0.00083     0.20992
             32  O  2 XY      0.00129     0.00102
             33  O  2 XZ      0.00012     0.00170
             34  O  2 YZ      0.00000     0.00014
             35  O  3  S      1.99799     1.98177
             36  O  3  S      0.86734     0.67821
             37  O  3  S      1.11851     0.63618
             38  O  3  X      0.71811     0.68277
             39  O  3  Y      0.82333     0.79566
             40  O  3  Z      1.07937     1.04852
             41  O  3  X      0.48506     0.54760
             42  O  3  Y      0.53640     0.56732
             43  O  3  Z      0.68169     0.71925
             44  O  3 XX      0.00066     0.21631
             45  O  3 YY      0.00184     0.21619
             46  O  3 ZZ      0.00083     0.20992
             47  O  3 XY      0.00129     0.00102
             48  O  3 XZ      0.00012     0.00170
             49  O  3 YZ      0.00000     0.00014

          ----- MULLIKEN ATOMIC OVERLAP POPULATIONS -----
          (OFF-DIAGONAL ELEMENTS NEED TO BE MULTIPLIED BY 2)

             1           2           3

    1   15.0111154
    2    0.1819158   8.1317057
    3    0.1819158  -0.0010951   8.1317057

          TOTAL MULLIKEN AND LOWDIN ATOMIC POPULATIONS
       ATOM         MULL.POP.    CHARGE          LOW.POP.     CHARGE
    1 S            15.374947    0.625053        15.394898    0.605102
    2 O             8.312526   -0.312526         8.302551   -0.302551
    3 O             8.312526   -0.312526         8.302551   -0.302551

          MULLIKEN SPHERICAL HARMONIC POPULATIONS
       ATOM           S       P       D      F      G      H      I    TOTAL
    1 S             5.97    9.32    0.09   0.00   0.00   0.00   0.00   15.37
    2 O             3.98    4.32    0.00   0.00   0.00   0.00   0.00    8.31
    3 O             3.98    4.32    0.00   0.00   0.00   0.00   0.00    8.31

          -------------------------------
          BOND ORDER AND VALENCE ANALYSIS     BOND ORDER THRESHOLD=0.050
          -------------------------------

                   BOND                       BOND                       BOND
  ATOM PAIR DIST  ORDER      ATOM PAIR DIST  ORDER      ATOM PAIR DIST  ORDER
    1   2  2.000  1.503        1   3  2.000  1.503        2   3  3.759  0.719

                       TOTAL       BONDED        FREE
      ATOM            VALENCE     VALENCE     VALENCE
    1 S                 3.007       3.007       0.000
    2 O                 2.222       2.222       0.000
    3 O                 2.222       2.222       0.000

          ---------------------
          ELECTROSTATIC MOMENTS
          ---------------------

 POINT   1           X           Y           Z (BOHR)    CHARGE
                 0.000000    0.000000    0.000000        0.00 (A.U.)
         DX          DY          DZ         /D/  (DEBYE)
     0.000000    0.000000   -1.474608    1.474608
 ...... END OF PROPERTY EVALUATION ......
 STEP CPU TIME =     0.01 TOTAL CPU TIME =        3.8 (    0.1 MIN)
 TOTAL WALL CLOCK TIME=        3.8 SECONDS, CPU UTILIZATION IS 100.00%
               580000  WORDS OF DYNAMIC MEMORY USED
 EXECUTION OF GAMESS TERMINATED NORMALLY Thu Feb 26 00:23:01 2015
 DDI: 263624 bytes (0.3 MB / 0 MWords) used by master data server.

 ----------------------------------------
 CPU timing information for all processes
 ========================================
 0: 3.763 + 0.33 = 3.797
 ----------------------------------------
 ddikick.x: exited gracefully.
----- accounting info -----
Files used on the master node dftfe.crc.nd.edu were:
-rw-r--r-- 1 pmehta1 campus   37475 Feb 26 00:23 /tmp/gamess.dat
-rw-r--r-- 1 pmehta1 campus     142 Feb 26 00:22 /tmp/gamess.F05
-rw-r--r-- 1 pmehta1 campus 1800240 Feb 26 00:22 /tmp/gamess.F08
-rw-r--r-- 1 pmehta1 campus 1220440 Feb 26 00:23 /tmp/gamess.F10
Thu Feb 26 00:23:04 EST 2015
0.251u 0.168s 0:07.23 5.6%	0+0k 0+104io 0pf+0w
