----- GAMESS execution script 'rungms' -----
This job is running on host dftfe.crc.nd.edu
under operating system Linux at Thu Feb 26 00:13:04 EST 2015
Available scratch disk space (Kbyte units) at beginning of the job is
Filesystem     1K-blocks     Used Available Use% Mounted on
/dev/sda2      147771864 22810432 117455000  17% /
GAMESS temporary binary files will be written to /tmp
GAMESS supplementary output files will be written to /tmp
Copying input file gamess.inp to your run's scratch directory...

 Distributed Data Interface kickoff program.
 Initiating 1 compute processes on 1 nodes to run the following command:
 /opt/crc/gamess/2012R1/gamess/gamess.00.x gamess 

          ******************************************************
          *         GAMESS VERSION =  1 MAY 2012 (R1)          *
          *             FROM IOWA STATE UNIVERSITY             *
          * M.W.SCHMIDT, K.K.BALDRIDGE, J.A.BOATZ, S.T.ELBERT, *
          *   M.S.GORDON, J.H.JENSEN, S.KOSEKI, N.MATSUNAGA,   *
          *          K.A.NGUYEN, S.J.SU, T.L.WINDUS,           *
          *       TOGETHER WITH M.DUPUIS, J.A.MONTGOMERY       *
          *         J.COMPUT.CHEM.  14, 1347-1363(1993)        *
          **************** 64 BIT LINUX VERSION ****************

  SINCE 1993, STUDENTS AND POSTDOCS WORKING AT IOWA STATE UNIVERSITY
  AND ALSO IN THEIR VARIOUS JOBS AFTER LEAVING ISU HAVE MADE IMPORTANT
  CONTRIBUTIONS TO THE CODE:
     IVANA ADAMOVIC, CHRISTINE AIKENS, YURI ALEXEEV, POOJA ARORA,
     ANDREY ASADCHEV, ROB BELL, PRADIPTA BANDYOPADHYAY, JONATHAN BENTZ,
     BRETT BODE, GALINA CHABAN, WEI CHEN, CHEOL HO CHOI, PAUL DAY,
     ALBERT DEFUSCO, TIM DUDLEY, DMITRI FEDOROV, GRAHAM FLETCHER,
     MARK FREITAG, KURT GLAESEMANN, DAN KEMP, GRANT MERRILL,
     NORIYUKI MINEZAWA, JONATHAN MULLIN, TAKESHI NAGATA,
     SEAN NEDD, HEATHER NETZLOFF, BOSILJKA NJEGIC, RYAN OLSON, MIKE PAK,
     JIM SHOEMAKER, LYUDMILA SLIPCHENKO, SAROM SOK, JIE SONG,
     TETSUYA TAKETSUGU, SIMON WEBB, SOOHAENG YOO, FEDERICO ZAHARIEV

  ADDITIONAL CODE HAS BEEN PROVIDED BY COLLABORATORS IN OTHER GROUPS:
     IOWA STATE UNIVERSITY:
          JOE IVANIC, LAIMUTIS BYTAUTAS, KLAUS RUEDENBERG
     UNIVERSITY OF TOKYO: KIMIHIKO HIRAO, TAKAHITO NAKAJIMA,
          TAKAO TSUNEDA, MUNEAKI KAMIYA, SUSUMU YANAGISAWA,
          KIYOSHI YAGI, MAHITO CHIBA, SEIKEN TOKURA, NAOAKI KAWAKAMI
     UNIVERSITY OF AARHUS: FRANK JENSEN
     UNIVERSITY OF IOWA: VISVALDAS KAIRYS, HUI LI
     NATIONAL INST. OF STANDARDS AND TECHNOLOGY: WALT STEVENS, DAVID GARMER
     UNIVERSITY OF PISA: BENEDETTA MENNUCCI, JACOPO TOMASI
     UNIVERSITY OF MEMPHIS: HENRY KURTZ, PRAKASHAN KORAMBATH
     UNIVERSITY OF ALBERTA: TOBY ZENG, MARIUSZ KLOBUKOWSKI
     UNIVERSITY OF NEW ENGLAND: MARK SPACKMAN
     MIE UNIVERSITY: HIROAKI UMEDA
     MICHIGAN STATE UNIVERSITY:
          KAROL KOWALSKI, MARTA WLOCH, JEFFREY GOUR, JESSE LUTZ, PIOTR PIECUCH
     UNIVERSITY OF SILESIA: MONIKA MUSIAL, STANISLAW KUCHARSKI
     FACULTES UNIVERSITAIRES NOTRE-DAME DE LA PAIX:
          OLIVIER QUINET, BENOIT CHAMPAGNE
     UNIVERSITY OF CALIFORNIA - SANTA BARBARA: BERNARD KIRTMAN
     INSTITUTE FOR MOLECULAR SCIENCE:
          KAZUYA ISHIMURA, MICHIO KATOUDA, AND SHIGERU NAGASE
     UNIVERSITY OF NOTRE DAME: DAN CHIPMAN
     KYUSHU UNIVERSITY:
          HARUYUKI NAKANO,
          FENG LONG GU, JACEK KORCHOWIEC, MARCIN MAKOWSKI, AND YURIKO AOKI,
          HIROTOSHI MORI AND EISAKU MIYOSHI
     PENNSYLVANIA STATE UNIVERSITY:
          TZVETELIN IORDANOV, CHET SWALINA, JONATHAN SKONE,
          SHARON HAMMES-SCHIFFER
     WASEDA UNIVERSITY:
          MASATO KOBAYASHI, TOMOKO AKAMA, TSUGUKI TOUMA,
          TAKESHI YOSHIKAWA, YASUHIRO IKABATA, HIROMI NAKAI
     UNIVERSITY OF NEBRASKA:
          PEIFENG SU, DEJUN SI, NANDUN THELLAMUREGE, YALI WANG, HUI LI
     UNIVERSITY OF ZURICH:
          ROBERTO PEVERATI, KIM BALDRIDGE
     N. COPERNICUS UNIVERSITY AND JACKSON STATE UNIVERSITY:
          MARIA BARYSZ

 EXECUTION OF GAMESS BEGUN Thu Feb 26 00:13:04 2015

            ECHO OF THE FIRST FEW INPUT CARDS -
 INPUT CARD> $BASIS GBASIS=PC1 $END                                                         
 INPUT CARD> $CONTRL COORD=ZMT ISPHER=1 RUNTYP=ENERGY DFTTYP=PBE $END                       
 INPUT CARD>                                                                                
 INPUT CARD> $DATA                                                                          
 INPUT CARD>Title                                                                           
 INPUT CARD>Cnv 2                                                                           
 INPUT CARD>                                                                                
 INPUT CARD>S                                                                               
 INPUT CARD>O 1 1.20                                                                        
 INPUT CARD>O 1 1.20 2 130.0                                                                
 INPUT CARD> $END                                                                           
    1000000 WORDS OF MEMORY AVAILABLE

     BASIS OPTIONS
     -------------
     GBASIS=PC1          IGAUSS=       0      POLAR=NONE    
     NDFUNC=       0     NFFUNC=       0     DIFFSP=       F
     NPFUNC=       0      DIFFS=       F     BASNAM=        


     RUN TITLE
     ---------
 Title                                                                           

 THE POINT GROUP OF THE MOLECULE IS CNV     
 THE ORDER OF THE PRINCIPAL AXIS IS     2

 YOUR FULLY SUBSTITUTED Z-MATRIX IS
 S   
 O      1   1.2000000
 O      1   1.2000000  2  130.0000

 THE MOMENTS OF INERTIA ARE (AMU-ANGSTROM**2)
 IXX=     4.113   IYY=    37.838   IZZ=    41.950

 ATOM      ATOMIC                      COORDINATES (BOHR)
           CHARGE         X                   Y                   Z
 S          16.0     0.0000000000        0.0000000000       -0.4793126039
 O           8.0    -2.0552080536        0.0000000000        0.4790466506
 O           8.0     2.0552080536        0.0000000000        0.4790466506

          INTERNUCLEAR DISTANCES (ANGS.)
          ------------------------------

                1 S          2 O          3 O     

   1 S       0.0000000    1.2000000 *  1.2000000 *
   2 O       1.2000000 *  0.0000000    2.1751387 *
   3 O       1.2000000 *  2.1751387 *  0.0000000  

  * ... LESS THAN  3.000


     ATOMIC BASIS SET
     ----------------
 THE CONTRACTED PRIMITIVE FUNCTIONS HAVE BEEN UNNORMALIZED
 THE CONTRACTED BASIS FUNCTIONS ARE NOW NORMALIZED TO UNITY

  SHELL TYPE  PRIMITIVE        EXPONENT          CONTRACTION COEFFICIENT(S)

 S         

      1   S       1         55510.0000000    0.000587229760
      1   S       2          8326.7000000    0.004532413947
      1   S       3          1895.6000000    0.023265261648
      1   S       4           536.7700000    0.089696133027
      1   S       5           174.6700000    0.254098332277
      1   S       6            62.5780000    0.438665087637
      1   S       7            23.5730000    0.314547135094
      1   S       8             5.8908000    0.032727897102

      2   S       9          8326.7000000   -0.000019755715
      2   S      10          1895.6000000   -0.000043822381
      2   S      11           536.7700000   -0.001730264906
      2   S      12           174.6700000   -0.009381263460
      2   S      13            62.5780000   -0.064050766303
      2   S      14            23.5730000   -0.082478179196
      2   S      15             5.8908000    0.478342956889
      2   S      16             2.1852000    0.626896670208

      3   S      17          1895.6000000    0.000016227260
      3   S      18           536.7700000    0.000191135619
      3   S      19           174.6700000    0.001952069674
      3   S      20            62.5780000    0.010578701087
      3   S      21            23.5730000    0.022164934551
      3   S      22             5.8908000   -0.184968323118
      3   S      23             2.1852000   -0.480920750976
      3   S      24             0.4528200    1.243822243872

      4   S      25             0.1620200    1.000000000000

      5   P      26           395.4500000    0.004642761329
      5   P      27            92.8340000    0.036023396489
      5   P      28            29.2660000    0.149058869978
      5   P      29            10.5950000    0.360033266263
      5   P      30             4.0272000    0.455756476221
      5   P      31             1.5484000    0.206167664178

      6   P      32            92.8340000    0.000169901442
      6   P      33            29.2660000   -0.002541839934
      6   P      34            10.5950000   -0.007867614595
      6   P      35             4.0272000   -0.037231009184
      6   P      36             1.5484000    0.161417246830
      6   P      37             0.4613400    0.902230419976

      7   P      38             0.1313100    1.000000000000

      8   D      39             0.5500000    1.000000000000

 O         

     15   S      40          2306.7000000    0.005424388755
     15   S      41           347.1500000    0.040474749465
     15   S      42            78.8900000    0.180219634554
     15   S      43            21.8760000    0.462370311787
     15   S      44             6.6646000    0.454888396263

     16   S      45           347.1500000   -0.000655003786
     16   S      46            78.8900000   -0.005362052952
     16   S      47            21.8760000   -0.074902158894
     16   S      48             6.6646000   -0.181442579655
     16   S      49             1.0669000    1.102006874042

     17   S      50             0.3070000    1.000000000000

     18   P      51            17.0220000    0.068979967443
     18   P      52             3.6838000    0.351985516325
     18   P      53             0.9923400    0.724036547822

     19   P      54             0.2448700    1.000000000000

     20   D      55             1.0000000    1.000000000000

 TOTAL NUMBER OF BASIS SET SHELLS             =   20
 NUMBER OF CARTESIAN GAUSSIAN BASIS FUNCTIONS =   49
 NOTE: THIS RUN WILL RESTRICT THE MO VARIATION SPACE TO SPHERICAL HARMONICS.
 THE NUMBER OF ORBITALS KEPT IN THE VARIATIONAL SPACE WILL BE PRINTED LATER.
 NUMBER OF ELECTRONS                          =   32
 CHARGE OF MOLECULE                           =    0
 SPIN MULTIPLICITY                            =    1
 NUMBER OF OCCUPIED ORBITALS (ALPHA)          =   16
 NUMBER OF OCCUPIED ORBITALS (BETA )          =   16
 TOTAL NUMBER OF ATOMS                        =    3
 THE NUCLEAR REPULSION ENERGY IS      128.4613462920

     LEBEDEV GRID-BASED DFT OPTIONS
     ------------------------------
     DFTTYP=PBE     
     NRAD  =      96     NLEB  =     302
     NRAD0 =      24     NLEB0 =     110
     SWOFF =    5.00E-03 (PURE SCF -> DFT)
     SWITCH=    3.00E-04 (COARSE -> TIGHT GRID)
     THRESH=    0.00E+00 GTHRE=    1.00E+00

 GRIMME'S EMPIRICAL DISPERSION CORRECTION= F

     $CONTRL OPTIONS
     ---------------
 SCFTYP=RHF          RUNTYP=ENERGY       EXETYP=RUN     
 MPLEVL=       0     CITYP =NONE         CCTYP =NONE         VBTYP =NONE    
 DFTTYP=PBE          TDDFT =NONE    
 MULT  =       1     ICHARG=       0     NZVAR =       0     COORD =ZMT     
 PP    =NONE         RELWFN=NONE         LOCAL =NONE         NUMGRD=       F
 ISPHER=       1     NOSYM =       0     MAXIT =      30     UNITS =ANGS    
 PLTORB=       F     MOLPLT=       F     AIMPAC=       F     FRIEND=        
 NPRINT=       7     IREST =       0     GEOM  =INPUT   
 NORMF =       0     NORMP =       0     ITOL  =      20     ICUT  =       9
 INTTYP=BEST         GRDTYP=BEST         QMTTOL= 1.0E-06

     $SYSTEM OPTIONS
     ---------------
  REPLICATED MEMORY=     1000000 WORDS (ON EVERY NODE).
 DISTRIBUTED MEMDDI=           0 MILLION WORDS IN AGGREGATE,
 MEMDDI DISTRIBUTED OVER   1 PROCESSORS IS           0 WORDS/PROCESSOR.
 TOTAL MEMORY REQUESTED ON EACH PROCESSOR=     1000000 WORDS.
 TIMLIM=      525600.00 MINUTES, OR     365.0 DAYS.
 PARALL= F  BALTYP=  DLB     KDIAG=    0  COREFL= F
 MXSEQ2=     300 MXSEQ3=     150

          ----------------
          PROPERTIES INPUT
          ----------------

     MOMENTS            FIELD           POTENTIAL          DENSITY
 IEMOM =       1   IEFLD =       0   IEPOT =       0   IEDEN =       0
 WHERE =COMASS     WHERE =NUCLEI     WHERE =NUCLEI     WHERE =NUCLEI  
 OUTPUT=BOTH       OUTPUT=BOTH       OUTPUT=BOTH       OUTPUT=BOTH    
 IEMINT=       0   IEFINT=       0                     IEDINT=       0
                                                       MORB  =       0
          EXTRAPOLATION IN EFFECT
          DIIS IN EFFECT
 ORBITAL PRINTING OPTION: NPREO=     1    49     2     1

     -------------------------------
     INTEGRAL TRANSFORMATION OPTIONS
     -------------------------------
     NWORD  =            0
     CUTOFF = 1.0E-09     MPTRAN =       0
     DIRTRF =       F     AOINTS =DUP     

          ----------------------
          INTEGRAL INPUT OPTIONS
          ----------------------
 NOPK  =       1 NORDER=       0 SCHWRZ=       F

   --- ENCODED Z MATRIX ---
 COORD  TYPE   I   J   K   L   M   N
    1      1    3   1
    2      1    2   1
    3      2    2   1   3

 THE DETERMINANT OF THE G MATRIX IS 10**(    -4)

 THE DETERMINANT OF THE G MATRIX IS 10**(    -4)
 * * * WARNING * * *
 YOUR B MATRIX HAS A SMALL DETERMINANT.
 THIS SUGGESTS YOU MAY HAVE BADLY CHOSEN COORDINATES.

     ------------------------------------------
     THE POINT GROUP IS CNV, NAXIS= 2, ORDER= 4
     ------------------------------------------

 -- VARIATIONAL SPACE WILL BE RESTRICTED TO PURE SPHERICAL HARMONICS ONLY --
 AFTER EXCLUDING CONTAMINANT COMBINATIONS FROM THE CARTESIAN GAUSSIAN BASIS
 SET, THE NUMBER OF SPHERICAL HARMONICS KEPT IN THE VARIATION SPACE IS   46

     DIMENSIONS OF THE SYMMETRY SUBSPACES ARE
 A1  =   19     A2  =    5     B1  =   14     B2  =    8

 ..... DONE SETTING UP THE RUN .....
 STEP CPU TIME =     0.07 TOTAL CPU TIME =        0.1 (    0.0 MIN)
 TOTAL WALL CLOCK TIME=        0.1 SECONDS, CPU UTILIZATION IS  87.50%

          ********************
          1 ELECTRON INTEGRALS
          ********************
 ...... END OF ONE-ELECTRON INTEGRALS ......
 STEP CPU TIME =     0.01 TOTAL CPU TIME =        0.1 (    0.0 MIN)
 TOTAL WALL CLOCK TIME=        0.1 SECONDS, CPU UTILIZATION IS 100.00%

          -------------
          GUESS OPTIONS
          -------------
          GUESS =HUCKEL            NORB  =       0          NORDER=       0
          MIX   =       F          PRTMO =       F          PUNMO =       F
          TOLZ  = 1.0E-08          TOLE  = 1.0E-05
          SYMDEN=       F          PURIFY=       F

 INITIAL GUESS ORBITALS GENERATED BY HUCKEL   ROUTINE.
 HUCKEL GUESS REQUIRES     21583 WORDS.

 STATISTICS FOR GENERATION OF SYMMETRY ORBITAL -Q- MATRIX
 NUMBER OF CARTESIAN ATOMIC ORBITALS=         49
 NUMBER OF SPHERICAL CONTAMINANTS DROPPED=     3
 NUMBER OF LINEARLY DEPENDENT MOS DROPPED=     0
 TOTAL NUMBER OF MOS IN VARIATION SPACE=      46

 SYMMETRIES FOR INITIAL GUESS ORBITALS FOLLOW.   BOTH SET(S).
    16 ORBITALS ARE OCCUPIED (    7 CORE ORBITALS).
     8=?A1      9=?B1     10=?A1     11=B2      12=A1      13=B1      14=A2  
    15=B1      16=?A1     17=B2      18=?A1     19=?B1     20=A1      21=A1  
    22=A1      23=A1      24=A1      25=A1      26=A1  
 ...... END OF INITIAL ORBITAL SELECTION ......
 STEP CPU TIME =     0.00 TOTAL CPU TIME =        0.1 (    0.0 MIN)
 TOTAL WALL CLOCK TIME=        0.1 SECONDS, CPU UTILIZATION IS  88.89%

                    ----------------------
                    AO INTEGRAL TECHNOLOGY
                    ----------------------
     S,P,L SHELL ROTATED AXIS INTEGRALS, REPROGRAMMED BY
        KAZUYA ISHIMURA (IMS) AND JOSE SIERRA (SYNSTAR).
     S,P,D,L SHELL ROTATED AXIS INTEGRALS PROGRAMMED BY
        KAZUYA ISHIMURA (INSTITUTE FOR MOLECULAR SCIENCE).
     S,P,D,F,G SHELL TO TOTAL QUARTET ANGULAR MOMENTUM SUM 5,
        ERIC PROGRAM BY GRAHAM FLETCHER (ELORET AND NASA ADVANCED
        SUPERCOMPUTING DIVISION, AMES RESEARCH CENTER).
     S,P,D,F,G,L SHELL GENERAL RYS QUADRATURE PROGRAMMED BY
        MICHEL DUPUIS (PACIFIC NORTHWEST NATIONAL LABORATORY).

          --------------------
          2 ELECTRON INTEGRALS
          --------------------

 THE -PK- OPTION IS OFF, THE INTEGRALS ARE NOT IN SUPERMATRIX FORM.
 STORING   15000 INTEGRALS/RECORD ON DISK, USING 12 BYTES/INTEGRAL.
 TWO ELECTRON INTEGRAL EVALUATION REQUIRES   90606 WORDS OF MEMORY.
 II,JST,KST,LST =  1  1  1  1 NREC =         1 INTLOC =    1
 II,JST,KST,LST =  2  1  1  1 NREC =         1 INTLOC =    2
 II,JST,KST,LST =  3  1  1  1 NREC =         1 INTLOC =    7
 II,JST,KST,LST =  4  1  1  1 NREC =         1 INTLOC =   22
 II,JST,KST,LST =  5  1  1  1 NREC =         1 INTLOC =   56
 II,JST,KST,LST =  6  1  1  1 NREC =         1 INTLOC =  125
 II,JST,KST,LST =  7  1  1  1 NREC =         1 INTLOC =  329
 II,JST,KST,LST =  8  1  1  1 NREC =         1 INTLOC =  776
 II,JST,KST,LST =  9  1  1  1 NREC =         1 INTLOC = 2864
 II,JST,KST,LST = 10  1  1  1 NREC =         1 INTLOC = 2864
 II,JST,KST,LST = 11  1  1  1 NREC =         1 INTLOC = 2864
 II,JST,KST,LST = 12  1  1  1 NREC =         1 INTLOC = 2864
 II,JST,KST,LST = 13  1  1  1 NREC =         1 INTLOC = 2864
 II,JST,KST,LST = 14  1  1  1 NREC =         1 INTLOC = 2864
 II,JST,KST,LST = 15  1  1  1 NREC =         1 INTLOC = 2864
 II,JST,KST,LST = 16  1  1  1 NREC =         1 INTLOC = 5170
 II,JST,KST,LST = 17  1  1  1 NREC =         1 INTLOC = 8512
 II,JST,KST,LST = 18  1  1  1 NREC =         1 INTLOC =12989
 II,JST,KST,LST = 19  1  1  1 NREC =         3 INTLOC = 1338
 II,JST,KST,LST = 20  1  1  1 NREC =         5 INTLOC = 2770
 TOTAL NUMBER OF NONZERO TWO-ELECTRON INTEGRALS =              182053
         13 INTEGRAL RECORDS WERE STORED ON DISK FILE  8.
  ...... END OF TWO-ELECTRON INTEGRALS .....
 STEP CPU TIME =     0.17 TOTAL CPU TIME =        0.3 (    0.0 MIN)
 TOTAL WALL CLOCK TIME=        0.3 SECONDS, CPU UTILIZATION IS  96.15%

          --------------------------
               R-PBE SCF CALCULATION
          --------------------------

     NUCLEAR ENERGY =       128.4613462920
     MAXIT =   30     NPUNCH=    2
     EXTRAP=T  DAMP=F  SHIFT=F  RSTRCT=F  DIIS=T  DEM=F  SOSCF=F
         DENSITY MATRIX CONVERGENCE THRESHOLD=  1.00E-05
     COARSE -> FINE DFT GRID SWITCH THRESHOLD=  3.00E-04 (SWITCH IN $DFT)
                   HF -> DFT SWITCH THRESHOLD=  5.00E-03 (SWOFF IN $DFT)
     MEMORY REQUIRED FOR RHF ITERS=    183108 WORDS.

 DFT CODE IS SWITCHING FROM THE FINE GRID NRAD= 96,  NLEB=  302
                      TO THE COARSE GRID NRAD0= 24, NLEB0=  110

     EXCHANGE FUNCTIONAL   =PBE       
     CORRELATION FUNCTIONAL=PBE       
     DFT THRESHOLD         =.460E-07
     GRID CHANGE THRESHOLD =.300E-03
 FOR AN EULER-MACLAURIN QUADRATURE USING  96 RADIAL POINTS:
 SMALLEST GAUSSIAN PRIMITIVE EXPONENT=        0.1313100000 OF TYPE -P-
 ON ATOM NUMBER   1 HAS RADIAL NORMALIZATION=  1.000000
  LARGEST GAUSSIAN PRIMITIVE EXPONENT=    55510.0000000000 OF TYPE -S-
 ON ATOM NUMBER   1 HAS RADIAL NORMALIZATION=  0.999999
 DFT IS SWITCHED OFF, PERFORMING PURE SCF UNTIL SWOFF THRESHOLD IS REACHED.

 ITER EX DEM     TOTAL ENERGY        E CHANGE  DENSITY CHANGE    DIIS ERROR
   1  0  0     -545.6175582608  -545.6175582608   0.461872864   1.273622585
          * * *   INITIATING DIIS PROCEDURE   * * *
   2  1  0     -546.7675911616    -1.1500329008   0.656799637   0.175495789
   3  2  0     -546.8551445746    -0.0875534130   0.061560371   0.087092034
   4  3  0     -546.8759574031    -0.0208128285   0.096249869   0.018891659
   5  4  0     -546.8777504959    -0.0017930928   0.048265995   0.006447297
   6  5  0     -546.8779887819    -0.0002382860   0.010769642   0.001478926
   7  6  0     -546.8780063043    -0.0000175224   0.000178667   0.000134631
 CONVERGED TO SWOFF, SO DFT CALCULATION IS NOW SWITCHED ON.
 DFT CODE IS SWITCHING BACK TO THE FINE GRID
          * * *   INITIATING DIIS PROCEDURE   * * *
   8  7  0     -547.9189563434    -1.0409500391   0.125740714   0.091600275
   9  8  0     -547.9357437136    -0.0167873702   0.086422613   0.037373079
  10  9  0     -547.9351490592     0.0005946544   0.032403471   0.038161400
  11 10  0     -547.9395387736    -0.0043897144   0.011090973   0.007008774
  12 11  0     -547.9396272885    -0.0000885149   0.000835196   0.000520901
  13 12  0     -547.9396276842    -0.0000003957   0.000081925   0.000018173
  14 13  0     -547.9396276857    -0.0000000015   0.000027316   0.000003966
  15 14  0     -547.9396276858    -0.0000000001   0.000002682   0.000000814
  16 15  0     -547.9396276858     0.0000000000   0.000000202   0.000000044

          -----------------
          DENSITY CONVERGED
          -----------------
     TIME TO FORM FOCK OPERATORS=       4.6 SECONDS (       0.3 SEC/ITER)
     TIME TO SOLVE SCF EQUATIONS=       0.0 SECONDS (       0.0 SEC/ITER)

 FINAL R-PBE ENERGY IS     -547.9396276858 AFTER  16 ITERATIONS
 DFT EXCHANGE + CORRELATION ENERGY =       -43.0650972318
 TOTAL ELECTRON NUMBER             =        31.9999631010

          ------------
          EIGENVECTORS
          ------------

                      1          2          3          4          5
                  -88.1496   -18.7648   -18.7648    -7.8057    -5.8286
                     A1         B1         A1         A1         B1  
    1  S  1  S    1.002985   0.000000  -0.000076  -0.273761   0.000000
    2  S  1  S   -0.010145   0.000000   0.000489   1.039237   0.000000
    3  S  1  S    0.002121   0.000000  -0.000690   0.043760   0.000000
    4  S  1  S   -0.000291   0.000000   0.011927  -0.007569   0.000000
    5  S  1  X    0.000000  -0.000408   0.000000   0.000000   0.994335
    6  S  1  Y    0.000000   0.000000   0.000000   0.000000   0.000000
    7  S  1  Z    0.000053   0.000000  -0.000007   0.015743   0.000000
    8  S  1  X    0.000000   0.001629   0.000000   0.000000   0.013437
    9  S  1  Y    0.000000   0.000000   0.000000   0.000000   0.000000
   10  S  1  Z    0.000235   0.000000   0.000565   0.003055   0.000000
   11  S  1  X    0.000000  -0.006047   0.000000   0.000000  -0.000150
   12  S  1  Y    0.000000   0.000000   0.000000   0.000000   0.000000
   13  S  1  Z    0.000042   0.000000   0.004485  -0.000114   0.000000
   14  S  1 XX    0.000309   0.000000  -0.001822   0.002887   0.000000
   15  S  1 YY   -0.000184   0.000000   0.000639  -0.001579   0.000000
   16  S  1 ZZ   -0.000126   0.000000   0.001183  -0.001308   0.000000
   17  S  1 XY    0.000000   0.000000   0.000000   0.000000   0.000000
   18  S  1 XZ    0.000000   0.002411   0.000000   0.000000   0.003079
   19  S  1 YZ    0.000000   0.000000   0.000000   0.000000   0.000000
   20  O  2  S    0.000009   0.703180   0.703217  -0.001144   0.002309
   21  O  2  S   -0.000031   0.027147   0.027178   0.000340  -0.002470
   22  O  2  S   -0.000465  -0.012665  -0.014821  -0.002914   0.001159
   23  O  2  X   -0.000154   0.002081   0.001681   0.000719  -0.003388
   24  O  2  Y    0.000000   0.000000   0.000000   0.000000   0.000000
   25  O  2  Z    0.000086  -0.000824  -0.000688  -0.000213   0.002040
   26  O  2  X   -0.000308  -0.001382  -0.003827  -0.002570   0.000881
   27  O  2  Y    0.000000   0.000000   0.000000   0.000000   0.000000
   28  O  2  Z    0.000186   0.001869   0.000086   0.001604  -0.000077
   29  O  2 XX   -0.000050   0.000525  -0.000181   0.001133  -0.001183
   30  O  2 YY    0.000057  -0.000053  -0.000154  -0.000606   0.001137
   31  O  2 ZZ   -0.000008  -0.000472   0.000335  -0.000527   0.000046
   32  O  2 XY    0.000000   0.000000   0.000000   0.000000   0.000000
   33  O  2 XZ    0.000092  -0.000079  -0.000366  -0.000697   0.001760
   34  O  2 YZ    0.000000   0.000000   0.000000   0.000000   0.000000
   35  O  3  S    0.000009  -0.703180   0.703217  -0.001144  -0.002309
   36  O  3  S   -0.000031  -0.027147   0.027178   0.000340   0.002470
   37  O  3  S   -0.000465   0.012665  -0.014821  -0.002914  -0.001159
   38  O  3  X    0.000154   0.002081  -0.001681  -0.000719  -0.003388
   39  O  3  Y    0.000000   0.000000   0.000000   0.000000   0.000000
   40  O  3  Z    0.000086   0.000824  -0.000688  -0.000213  -0.002040
   41  O  3  X    0.000308  -0.001382   0.003827   0.002570   0.000881
   42  O  3  Y    0.000000   0.000000   0.000000   0.000000   0.000000
   43  O  3  Z    0.000186  -0.001869   0.000086   0.001604   0.000077
   44  O  3 XX   -0.000050  -0.000525  -0.000181   0.001133   0.001183
   45  O  3 YY    0.000057   0.000053  -0.000154  -0.000606  -0.001137
   46  O  3 ZZ   -0.000008   0.000472   0.000335  -0.000527  -0.000046
   47  O  3 XY    0.000000   0.000000   0.000000   0.000000   0.000000
   48  O  3 XZ   -0.000092  -0.000079   0.000366   0.000697   0.001760
   49  O  3 YZ    0.000000   0.000000   0.000000   0.000000   0.000000

                      6          7          8          9         10
                   -5.8203    -5.8140    -1.1904    -1.0744    -0.5269
                     B2         A1         A1         B1         B2  
    1  S  1  S    0.000000   0.004789   0.060808   0.000000   0.000000
    2  S  1  S    0.000000  -0.017922  -0.189009   0.000000   0.000000
    3  S  1  S    0.000000   0.001121   0.319129   0.000000   0.000000
    4  S  1  S    0.000000  -0.000358   0.079762   0.000000   0.000000
    5  S  1  X    0.000000   0.000000   0.000000  -0.203931   0.000000
    6  S  1  Y    0.996301   0.000000   0.000000   0.000000  -0.206435
    7  S  1  Z    0.000000   0.995923  -0.083005   0.000000   0.000000
    8  S  1  X    0.000000   0.000000   0.000000   0.340182   0.000000
    9  S  1  Y    0.010577   0.000000   0.000000   0.000000   0.455967
   10  S  1  Z    0.000000   0.010558   0.129020   0.000000   0.000000
   11  S  1  X    0.000000   0.000000   0.000000   0.008105   0.000000
   12  S  1  Y   -0.000626   0.000000   0.000000   0.000000   0.149232
   13  S  1  Z    0.000000  -0.000450  -0.012936   0.000000   0.000000
   14  S  1 XX    0.000000  -0.000637   0.065266   0.000000   0.000000
   15  S  1 YY    0.000000  -0.000892  -0.043412   0.000000   0.000000
   16  S  1 ZZ    0.000000   0.001529  -0.021854   0.000000   0.000000
   17  S  1 XY    0.000000   0.000000   0.000000   0.000000   0.000000
   18  S  1 XZ    0.000000   0.000000   0.000000   0.094977   0.000000
   19  S  1 YZ    0.001261   0.000000   0.000000   0.000000   0.067377
   20  O  2  S    0.000000  -0.001024  -0.126258   0.147129   0.000000
   21  O  2  S    0.000000   0.001412   0.236344  -0.276551   0.000000
   22  O  2  S    0.000000   0.000064   0.224633  -0.261797   0.000000
   23  O  2  X    0.000000   0.002109   0.146448  -0.133331   0.000000
   24  O  2  Y    0.000613   0.000000   0.000000   0.000000   0.334636
   25  O  2  Z    0.000000  -0.000403  -0.053831   0.069220   0.000000
   26  O  2  X    0.000000  -0.000325   0.037171  -0.015745   0.000000
   27  O  2  Y   -0.000186   0.000000   0.000000   0.000000   0.173756
   28  O  2  Z    0.000000  -0.000201  -0.005688   0.014213   0.000000
   29  O  2 XX    0.000000   0.000972   0.019325  -0.011260   0.000000
   30  O  2 YY    0.000000  -0.000387  -0.009331   0.009593   0.000000
   31  O  2 ZZ    0.000000  -0.000585  -0.009994   0.001667   0.000000
   32  O  2 XY    0.000499   0.000000   0.000000   0.000000   0.028758
   33  O  2 XZ    0.000000  -0.000369  -0.011619   0.016026   0.000000
   34  O  2 YZ   -0.000328   0.000000   0.000000   0.000000  -0.012299
   35  O  3  S    0.000000  -0.001024  -0.126258  -0.147129   0.000000
   36  O  3  S    0.000000   0.001412   0.236344   0.276551   0.000000
   37  O  3  S    0.000000   0.000064   0.224633   0.261797   0.000000
   38  O  3  X    0.000000  -0.002109  -0.146448  -0.133331   0.000000
   39  O  3  Y    0.000613   0.000000   0.000000   0.000000   0.334636
   40  O  3  Z    0.000000  -0.000403  -0.053831  -0.069220   0.000000
   41  O  3  X    0.000000   0.000325  -0.037171  -0.015745   0.000000
   42  O  3  Y   -0.000186   0.000000   0.000000   0.000000   0.173756
   43  O  3  Z    0.000000  -0.000201  -0.005688  -0.014213   0.000000
   44  O  3 XX    0.000000   0.000972   0.019325   0.011260   0.000000
   45  O  3 YY    0.000000  -0.000387  -0.009331  -0.009593   0.000000
   46  O  3 ZZ    0.000000  -0.000585  -0.009994  -0.001667   0.000000
   47  O  3 XY   -0.000499   0.000000   0.000000   0.000000  -0.028758
   48  O  3 XZ    0.000000   0.000369   0.011619   0.016026   0.000000
   49  O  3 YZ   -0.000328   0.000000   0.000000   0.000000  -0.012299

                     11         12         13         14         15
                   -0.5266    -0.4971    -0.4430    -0.3889    -0.3584
                     A1         A1         B1         A2         B1  
    1  S  1  S   -0.045446   0.027164   0.000000   0.000000   0.000000
    2  S  1  S    0.125012  -0.062987   0.000000   0.000000   0.000000
    3  S  1  S   -0.289294   0.186018   0.000000   0.000000   0.000000
    4  S  1  S   -0.240631  -0.015536   0.000000   0.000000   0.000000
    5  S  1  X    0.000000   0.000000  -0.159538   0.000000   0.002994
    6  S  1  Y    0.000000   0.000000   0.000000   0.000000   0.000000
    7  S  1  Z   -0.139893  -0.126856   0.000000   0.000000   0.000000
    8  S  1  X    0.000000   0.000000   0.334606   0.000000  -0.004993
    9  S  1  Y    0.000000   0.000000   0.000000   0.000000   0.000000
   10  S  1  Z    0.303818   0.274961   0.000000   0.000000   0.000000
   11  S  1  X    0.000000   0.000000  -0.032553   0.000000   0.081678
   12  S  1  Y    0.000000   0.000000   0.000000   0.000000   0.000000
   13  S  1  Z    0.130557   0.037035   0.000000   0.000000   0.000000
   14  S  1 XX   -0.057510  -0.084340   0.000000   0.000000   0.000000
   15  S  1 YY   -0.017463   0.008238   0.000000   0.000000   0.000000
   16  S  1 ZZ    0.074973   0.076101   0.000000   0.000000   0.000000
   17  S  1 XY    0.000000   0.000000   0.000000  -0.183700   0.000000
   18  S  1 XZ    0.000000   0.000000   0.015003   0.000000  -0.169351
   19  S  1 YZ    0.000000   0.000000   0.000000   0.000000   0.000000
   20  O  2  S   -0.061486   0.079568  -0.066773   0.000000   0.001993
   21  O  2  S    0.128111  -0.159418   0.138135   0.000000  -0.016179
   22  O  2  S    0.227640  -0.271458   0.274995   0.000000  -0.015715
   23  O  2  X   -0.045735   0.334746  -0.301986   0.000000   0.321448
   24  O  2  Y    0.000000   0.000000   0.000000   0.457993   0.000000
   25  O  2  Z    0.283030   0.104986   0.272088   0.000000   0.343957
   26  O  2  X   -0.020508   0.186621  -0.141879   0.000000   0.188474
   27  O  2  Y    0.000000   0.000000   0.000000   0.291893   0.000000
   28  O  2  Z    0.137461   0.057162   0.153913   0.000000   0.228614
   29  O  2 XX    0.004847   0.022820  -0.010912   0.000000   0.026482
   30  O  2 YY    0.004293  -0.009427   0.013028   0.000000  -0.005197
   31  O  2 ZZ   -0.009139  -0.013393  -0.002116   0.000000  -0.021285
   32  O  2 XY    0.000000   0.000000   0.000000   0.023906   0.000000
   33  O  2 XZ    0.017985   0.000307   0.022787   0.000000   0.013860
   34  O  2 YZ    0.000000   0.000000   0.000000  -0.009456   0.000000
   35  O  3  S   -0.061486   0.079568   0.066773   0.000000  -0.001993
   36  O  3  S    0.128111  -0.159418  -0.138135   0.000000   0.016179
   37  O  3  S    0.227640  -0.271458  -0.274995   0.000000   0.015715
   38  O  3  X    0.045735  -0.334746  -0.301986   0.000000   0.321448
   39  O  3  Y    0.000000   0.000000   0.000000  -0.457993   0.000000
   40  O  3  Z    0.283030   0.104986  -0.272088   0.000000  -0.343957
   41  O  3  X    0.020508  -0.186621  -0.141879   0.000000   0.188474
   42  O  3  Y    0.000000   0.000000   0.000000  -0.291893   0.000000
   43  O  3  Z    0.137461   0.057162  -0.153913   0.000000  -0.228614
   44  O  3 XX    0.004847   0.022820   0.010912   0.000000  -0.026482
   45  O  3 YY    0.004293  -0.009427  -0.013028   0.000000   0.005197
   46  O  3 ZZ   -0.009139  -0.013393   0.002116   0.000000   0.021285
   47  O  3 XY    0.000000   0.000000   0.000000   0.023906   0.000000
   48  O  3 XZ   -0.017985  -0.000307   0.022787   0.000000   0.013860
   49  O  3 YZ    0.000000   0.000000   0.000000   0.009456   0.000000

                     16         17         18         19         20
                   -0.2380    -0.0562     0.1027     0.1757     0.3387
                     A1         B2         A1         B1         B2  
    1  S  1  S    0.023772   0.000000   0.004038   0.000000   0.000000
    2  S  1  S   -0.125308   0.000000  -0.128918   0.000000   0.000000
    3  S  1  S    0.090141   0.000000  -0.110127   0.000000   0.000000
    4  S  1  S    0.915362   0.000000   1.570858   0.000000   0.000000
    5  S  1  X    0.000000   0.000000   0.000000  -0.056401   0.000000
    6  S  1  Y    0.000000  -0.200035   0.000000   0.000000   0.294392
    7  S  1  Z    0.145612   0.000000  -0.095861   0.000000   0.000000
    8  S  1  X    0.000000   0.000000   0.000000   0.185887   0.000000
    9  S  1  Y    0.000000   0.529964   0.000000   0.000000  -1.113986
   10  S  1  Z   -0.323130   0.000000   0.297086   0.000000   0.000000
   11  S  1  X    0.000000   0.000000   0.000000   1.801673   0.000000
   12  S  1  Y    0.000000   0.752031   0.000000   0.000000   1.176826
   13  S  1  Z   -0.160608   0.000000   1.191881   0.000000   0.000000
   14  S  1 XX   -0.202206   0.000000  -0.126810   0.000000   0.000000
   15  S  1 YY    0.096524   0.000000   0.239850   0.000000   0.000000
   16  S  1 ZZ    0.105683   0.000000  -0.113040   0.000000   0.000000
   17  S  1 XY    0.000000   0.000000   0.000000   0.000000   0.000000
   18  S  1 XZ    0.000000   0.000000   0.000000  -0.141637   0.000000
   19  S  1 YZ    0.000000  -0.108318   0.000000   0.000000  -0.124311
   20  O  2  S    0.029230   0.000000   0.064158  -0.067666   0.000000
   21  O  2  S   -0.047805   0.000000  -0.096612   0.084186   0.000000
   22  O  2  S   -0.187798   0.000000  -0.806027   1.003892   0.000000
   23  O  2  X   -0.129479   0.000000  -0.210434  -0.052993   0.000000
   24  O  2  Y    0.000000  -0.371179   0.000000   0.000000   0.014020
   25  O  2  Z    0.324308   0.000000  -0.152903  -0.192933   0.000000
   26  O  2  X   -0.098174   0.000000  -0.403457   0.020021   0.000000
   27  O  2  Y    0.000000  -0.414671   0.000000   0.000000  -0.021016
   28  O  2  Z    0.256932   0.000000  -0.201633  -0.298022   0.000000
   29  O  2 XX   -0.014006   0.000000  -0.017953   0.012763   0.000000
   30  O  2 YY    0.009532   0.000000   0.020330  -0.007375   0.000000
   31  O  2 ZZ    0.004474   0.000000  -0.002377  -0.005387   0.000000
   32  O  2 XY    0.000000  -0.005542   0.000000   0.000000  -0.039104
   33  O  2 XZ    0.015861   0.000000   0.011203  -0.016466   0.000000
   34  O  2 YZ    0.000000  -0.002117   0.000000   0.000000   0.012731
   35  O  3  S    0.029230   0.000000   0.064158   0.067666   0.000000
   36  O  3  S   -0.047805   0.000000  -0.096612  -0.084186   0.000000
   37  O  3  S   -0.187798   0.000000  -0.806027  -1.003892   0.000000
   38  O  3  X    0.129479   0.000000   0.210434  -0.052993   0.000000
   39  O  3  Y    0.000000  -0.371179   0.000000   0.000000   0.014020
   40  O  3  Z    0.324308   0.000000  -0.152903   0.192933   0.000000
   41  O  3  X    0.098174   0.000000   0.403457   0.020021   0.000000
   42  O  3  Y    0.000000  -0.414671   0.000000   0.000000  -0.021016
   43  O  3  Z    0.256932   0.000000  -0.201633   0.298022   0.000000
   44  O  3 XX   -0.014006   0.000000  -0.017953  -0.012763   0.000000
   45  O  3 YY    0.009532   0.000000   0.020330   0.007375   0.000000
   46  O  3 ZZ    0.004474   0.000000  -0.002377   0.005387   0.000000
   47  O  3 XY    0.000000   0.005542   0.000000   0.000000   0.039104
   48  O  3 XZ   -0.015861   0.000000  -0.011203  -0.016466   0.000000
   49  O  3 YZ    0.000000  -0.002117   0.000000   0.000000   0.012731

                     21         22         23         24         25
                    0.3769     0.4578     0.5247     0.5729     0.6089
                     A1         A1         B1         B2         A1  
    1  S  1  S   -0.032328  -0.074786   0.000000   0.000000   0.056719
    2  S  1  S   -0.110805  -0.149616   0.000000   0.000000   0.189796
    3  S  1  S   -0.490769  -0.989791   0.000000   0.000000   0.863850
    4  S  1  S    0.399438   2.737274   0.000000   0.000000  -0.000059
    5  S  1  X    0.000000   0.000000   0.124269   0.000000   0.000000
    6  S  1  Y    0.000000   0.000000   0.000000   0.020356   0.000000
    7  S  1  Z   -0.287081  -0.006622   0.000000   0.000000  -0.061996
    8  S  1  X    0.000000   0.000000  -0.177156   0.000000   0.000000
    9  S  1  Y    0.000000   0.000000   0.000000  -0.101224   0.000000
   10  S  1  Z    1.066089   0.172506   0.000000   0.000000   0.284296
   11  S  1  X    0.000000   0.000000   0.863287   0.000000   0.000000
   12  S  1  Y    0.000000   0.000000   0.000000   0.303037   0.000000
   13  S  1  Z   -1.010360   0.288865   0.000000   0.000000   0.316154
   14  S  1 XX   -0.276031   0.558190   0.000000   0.000000  -0.193818
   15  S  1 YY    0.172962  -0.512289   0.000000   0.000000  -0.646086
   16  S  1 ZZ    0.103069  -0.045901   0.000000   0.000000   0.839904
   17  S  1 XY    0.000000   0.000000   0.000000   0.000000   0.000000
   18  S  1 XZ    0.000000   0.000000   0.774916   0.000000   0.000000
   19  S  1 YZ    0.000000   0.000000   0.000000   0.968746   0.000000
   20  O  2  S    0.004602   0.026370  -0.017650   0.000000   0.034573
   21  O  2  S   -0.053916   0.010359  -0.040139   0.000000  -0.113879
   22  O  2  S    0.169599  -1.054021   0.793453   0.000000  -0.264335
   23  O  2  X   -0.093550   0.274015  -0.236861   0.000000  -0.108210
   24  O  2  Y    0.000000   0.000000   0.000000  -0.258318   0.000000
   25  O  2  Z   -0.012714  -0.143763   0.220984   0.000000  -0.160790
   26  O  2  X   -0.006848  -0.577294   0.668196   0.000000  -0.477978
   27  O  2  Y    0.000000   0.000000   0.000000  -0.068306   0.000000
   28  O  2  Z   -0.070955   0.385330  -0.087668   0.000000  -0.025069
   29  O  2 XX    0.027685  -0.042925   0.017351   0.000000   0.034478
   30  O  2 YY    0.000583   0.021685  -0.028826   0.000000  -0.046581
   31  O  2 ZZ   -0.028268   0.021240   0.011475   0.000000   0.012103
   32  O  2 XY    0.000000   0.000000   0.000000   0.030249   0.000000
   33  O  2 XZ    0.020051   0.048750  -0.039551   0.000000   0.032798
   34  O  2 YZ    0.000000   0.000000   0.000000   0.050609   0.000000
   35  O  3  S    0.004602   0.026370   0.017650   0.000000   0.034573
   36  O  3  S   -0.053916   0.010359   0.040139   0.000000  -0.113879
   37  O  3  S    0.169599  -1.054021  -0.793453   0.000000  -0.264335
   38  O  3  X    0.093550  -0.274015  -0.236861   0.000000   0.108210
   39  O  3  Y    0.000000   0.000000   0.000000  -0.258318   0.000000
   40  O  3  Z   -0.012714  -0.143763  -0.220984   0.000000  -0.160790
   41  O  3  X    0.006848   0.577294   0.668196   0.000000   0.477978
   42  O  3  Y    0.000000   0.000000   0.000000  -0.068306   0.000000
   43  O  3  Z   -0.070955   0.385330   0.087668   0.000000  -0.025069
   44  O  3 XX    0.027685  -0.042925  -0.017351   0.000000   0.034478
   45  O  3 YY    0.000583   0.021685   0.028826   0.000000  -0.046581
   46  O  3 ZZ   -0.028268   0.021240  -0.011475   0.000000   0.012103
   47  O  3 XY    0.000000   0.000000   0.000000  -0.030249   0.000000
   48  O  3 XZ   -0.020051  -0.048750  -0.039551   0.000000  -0.032798
   49  O  3 YZ    0.000000   0.000000   0.000000   0.050609   0.000000

                     26         27         28         29         30
                    0.6328     0.6573     0.6881     0.7649     0.7969
                     A1         B1         A2         A2         A1  
    1  S  1  S    0.070846   0.000000   0.000000   0.000000   0.034306
    2  S  1  S    0.394692   0.000000   0.000000   0.000000   0.171910
    3  S  1  S    1.275976   0.000000   0.000000   0.000000   0.595608
    4  S  1  S    0.410653   0.000000   0.000000   0.000000  -0.283766
    5  S  1  X    0.000000  -0.241624   0.000000   0.000000   0.000000
    6  S  1  Y    0.000000   0.000000   0.000000   0.000000   0.000000
    7  S  1  Z   -0.071543   0.000000   0.000000   0.000000  -0.068064
    8  S  1  X    0.000000   1.277171   0.000000   0.000000   0.000000
    9  S  1  Y    0.000000   0.000000   0.000000   0.000000   0.000000
   10  S  1  Z    0.468797   0.000000   0.000000   0.000000   0.240156
   11  S  1  X    0.000000  -0.306681   0.000000   0.000000   0.000000
   12  S  1  Y    0.000000   0.000000   0.000000   0.000000   0.000000
   13  S  1  Z   -0.024545   0.000000   0.000000   0.000000  -0.990596
   14  S  1 XX    0.180621   0.000000   0.000000   0.000000   0.202356
   15  S  1 YY    0.205063   0.000000   0.000000   0.000000   0.114912
   16  S  1 ZZ   -0.385684   0.000000   0.000000   0.000000  -0.317269
   17  S  1 XY    0.000000   0.000000   0.906816   0.572512   0.000000
   18  S  1 XZ    0.000000  -0.180968   0.000000   0.000000   0.000000
   19  S  1 YZ    0.000000   0.000000   0.000000   0.000000   0.000000
   20  O  2  S    0.041584  -0.048956   0.000000   0.000000   0.002032
   21  O  2  S    0.003801   0.086077   0.000000   0.000000   0.031209
   22  O  2  S   -0.616966   0.435545   0.000000   0.000000   0.002113
   23  O  2  X    0.311127  -0.088011   0.000000   0.000000  -0.289399
   24  O  2  Y    0.000000   0.000000  -0.187132   0.647663   0.000000
   25  O  2  Z    0.140280   0.191013   0.000000   0.000000  -0.481464
   26  O  2  X   -1.001492   0.855167   0.000000   0.000000   0.161356
   27  O  2  Y    0.000000   0.000000   0.763292  -0.450153   0.000000
   28  O  2  Z    0.312801  -0.717881   0.000000   0.000000   1.023639
   29  O  2 XX    0.004538   0.007249   0.000000   0.000000   0.012315
   30  O  2 YY    0.018762   0.017681   0.000000   0.000000  -0.010068
   31  O  2 ZZ   -0.023300  -0.024930   0.000000   0.000000  -0.002247
   32  O  2 XY    0.000000   0.000000  -0.040379  -0.011642   0.000000
   33  O  2 XZ   -0.021541   0.033413   0.000000   0.000000  -0.020199
   34  O  2 YZ    0.000000   0.000000   0.040096   0.040379   0.000000
   35  O  3  S    0.041584   0.048956   0.000000   0.000000   0.002032
   36  O  3  S    0.003801  -0.086077   0.000000   0.000000   0.031209
   37  O  3  S   -0.616966  -0.435545   0.000000   0.000000   0.002113
   38  O  3  X   -0.311127  -0.088011   0.000000   0.000000   0.289399
   39  O  3  Y    0.000000   0.000000   0.187132  -0.647663   0.000000
   40  O  3  Z    0.140280  -0.191013   0.000000   0.000000  -0.481464
   41  O  3  X    1.001492   0.855167   0.000000   0.000000  -0.161356
   42  O  3  Y    0.000000   0.000000  -0.763292   0.450153   0.000000
   43  O  3  Z    0.312801   0.717881   0.000000   0.000000   1.023639
   44  O  3 XX    0.004538  -0.007249   0.000000   0.000000   0.012315
   45  O  3 YY    0.018762  -0.017681   0.000000   0.000000  -0.010068
   46  O  3 ZZ   -0.023300   0.024930   0.000000   0.000000  -0.002247
   47  O  3 XY    0.000000   0.000000  -0.040379  -0.011642   0.000000
   48  O  3 XZ    0.021541   0.033413   0.000000   0.000000   0.020199
   49  O  3 YZ    0.000000   0.000000  -0.040096  -0.040379   0.000000

                     31         32         33         34         35
                    0.8531     0.8576     1.4713     1.5222     1.7181
                     B1         B2         A1         B1         B1  
    1  S  1  S    0.000000   0.000000   0.035634   0.000000   0.000000
    2  S  1  S    0.000000   0.000000  -0.107566   0.000000   0.000000
    3  S  1  S    0.000000   0.000000   0.287425   0.000000   0.000000
    4  S  1  S    0.000000   0.000000   1.147588   0.000000   0.000000
    5  S  1  X    0.128608   0.000000   0.000000  -0.246199   0.093932
    6  S  1  Y    0.000000  -0.037304   0.000000   0.000000   0.000000
    7  S  1  Z    0.000000   0.000000  -0.143742   0.000000   0.000000
    8  S  1  X   -0.604441   0.000000   0.000000   1.111048  -0.081228
    9  S  1  Y    0.000000   0.069288   0.000000   0.000000   0.000000
   10  S  1  Z    0.000000   0.000000   0.636613   0.000000   0.000000
   11  S  1  X    0.747267   0.000000   0.000000   1.025478   1.129133
   12  S  1  Y    0.000000  -1.048068   0.000000   0.000000   0.000000
   13  S  1  Z    0.000000   0.000000   0.207683   0.000000   0.000000
   14  S  1 XX    0.000000   0.000000   1.114666   0.000000   0.000000
   15  S  1 YY    0.000000   0.000000  -0.717477   0.000000   0.000000
   16  S  1 ZZ    0.000000   0.000000  -0.397189   0.000000   0.000000
   17  S  1 XY    0.000000   0.000000   0.000000   0.000000   0.000000
   18  S  1 XZ   -0.054833   0.000000   0.000000   0.852687  -0.234319
   19  S  1 YZ    0.000000  -0.274047   0.000000   0.000000   0.000000
   20  O  2  S    0.005854   0.000000   0.026776  -0.024806   0.008993
   21  O  2  S    0.036233   0.000000  -0.236928  -0.250755  -1.264294
   22  O  2  S   -0.036097   0.000000  -0.859698   1.578293   1.860442
   23  O  2  X    0.185506   0.000000  -0.513541   0.661817  -0.170586
   24  O  2  Y    0.000000  -0.595016   0.000000   0.000000   0.000000
   25  O  2  Z    0.575000   0.000000   0.438641  -0.101475   0.074408
   26  O  2  X   -0.730327   0.000000  -0.096144   0.017390   0.279682
   27  O  2  Y    0.000000   1.111094   0.000000   0.000000   0.000000
   28  O  2  Z   -0.641469   0.000000  -0.026704  -0.239994  -0.341730
   29  O  2 XX    0.049366   0.000000   0.002376  -0.155175   0.030775
   30  O  2 YY   -0.033165   0.000000  -0.133785  -0.011742   0.173881
   31  O  2 ZZ   -0.016202   0.000000   0.131409   0.166918  -0.204657
   32  O  2 XY    0.000000  -0.038821   0.000000   0.000000   0.000000
   33  O  2 XZ    0.008273   0.000000  -0.085144   0.116463   0.093920
   34  O  2 YZ    0.000000   0.011252   0.000000   0.000000   0.000000
   35  O  3  S   -0.005854   0.000000   0.026776   0.024806  -0.008993
   36  O  3  S   -0.036233   0.000000  -0.236928   0.250755   1.264294
   37  O  3  S    0.036097   0.000000  -0.859698  -1.578293  -1.860442
   38  O  3  X    0.185506   0.000000   0.513541   0.661817  -0.170586
   39  O  3  Y    0.000000  -0.595016   0.000000   0.000000   0.000000
   40  O  3  Z   -0.575000   0.000000   0.438641   0.101475  -0.074408
   41  O  3  X   -0.730327   0.000000   0.096144   0.017390   0.279682
   42  O  3  Y    0.000000   1.111094   0.000000   0.000000   0.000000
   43  O  3  Z    0.641469   0.000000  -0.026704   0.239994   0.341730
   44  O  3 XX   -0.049366   0.000000   0.002376   0.155175  -0.030775
   45  O  3 YY    0.033165   0.000000  -0.133785   0.011742  -0.173881
   46  O  3 ZZ    0.016202   0.000000   0.131409  -0.166918   0.204657
   47  O  3 XY    0.000000   0.038821   0.000000   0.000000   0.000000
   48  O  3 XZ    0.008273   0.000000   0.085144   0.116463   0.093920
   49  O  3 YZ    0.000000   0.011252   0.000000   0.000000   0.000000

                     36         37         38         39         40
                    1.7215     2.0044     2.0363     2.0625     2.1290
                     A1         A2         B1         B2         A1  
    1  S  1  S   -0.003169   0.000000   0.000000   0.000000   0.003125
    2  S  1  S    0.015236   0.000000   0.000000   0.000000  -0.057793
    3  S  1  S   -0.014412   0.000000   0.000000   0.000000  -0.037277
    4  S  1  S    2.667496   0.000000   0.000000   0.000000  -0.017551
    5  S  1  X    0.000000   0.000000  -0.042389   0.000000   0.000000
    6  S  1  Y    0.000000   0.000000   0.000000  -0.036548   0.000000
    7  S  1  Z   -0.016323   0.000000   0.000000   0.000000  -0.018433
    8  S  1  X    0.000000   0.000000   0.084799   0.000000   0.000000
    9  S  1  Y    0.000000   0.000000   0.000000   0.189243   0.000000
   10  S  1  Z    0.243344   0.000000   0.000000   0.000000   0.040224
   11  S  1  X    0.000000   0.000000   0.019929   0.000000   0.000000
   12  S  1  Y    0.000000   0.000000   0.000000   0.001104   0.000000
   13  S  1  Z    0.943282   0.000000   0.000000   0.000000  -0.009661
   14  S  1 XX    0.134446   0.000000   0.000000   0.000000   0.227572
   15  S  1 YY   -0.181360   0.000000   0.000000   0.000000  -0.357405
   16  S  1 ZZ    0.046915   0.000000   0.000000   0.000000   0.129833
   17  S  1 XY    0.000000   0.052124   0.000000   0.000000   0.000000
   18  S  1 XZ    0.000000   0.000000   0.041192   0.000000   0.000000
   19  S  1 YZ    0.000000   0.000000   0.000000  -0.136369   0.000000
   20  O  2  S    0.008098   0.000000  -0.003510   0.000000   0.001902
   21  O  2  S    1.276916   0.000000   0.167288   0.000000  -0.209920
   22  O  2  S   -2.567039   0.000000  -0.142066   0.000000   0.119198
   23  O  2  X   -0.058071   0.000000   0.115649   0.000000  -0.115454
   24  O  2  Y    0.000000  -0.028251   0.000000   0.042857   0.000000
   25  O  2  Z    0.073317   0.000000   0.026681   0.000000   0.053066
   26  O  2  X   -0.709490   0.000000  -0.154854   0.000000   0.091137
   27  O  2  Y    0.000000   0.053246   0.000000  -0.066609   0.000000
   28  O  2  Z    0.016066   0.000000  -0.048199   0.000000  -0.029605
   29  O  2 XX    0.192259   0.000000  -0.326277   0.000000  -0.080915
   30  O  2 YY   -0.035818   0.000000   0.585982   0.000000   0.592500
   31  O  2 ZZ   -0.156441   0.000000  -0.259706   0.000000  -0.511585
   32  O  2 XY    0.000000   0.464475   0.000000   0.039674   0.000000
   33  O  2 XZ   -0.054167   0.000000  -0.385560   0.000000  -0.292459
   34  O  2 YZ    0.000000   0.535784   0.000000   0.712905   0.000000
   35  O  3  S    0.008098   0.000000   0.003510   0.000000   0.001902
   36  O  3  S    1.276916   0.000000  -0.167288   0.000000  -0.209920
   37  O  3  S   -2.567039   0.000000   0.142066   0.000000   0.119198
   38  O  3  X    0.058071   0.000000   0.115649   0.000000   0.115454
   39  O  3  Y    0.000000   0.028251   0.000000   0.042857   0.000000
   40  O  3  Z    0.073317   0.000000  -0.026681   0.000000   0.053066
   41  O  3  X    0.709490   0.000000  -0.154854   0.000000  -0.091137
   42  O  3  Y    0.000000  -0.053246   0.000000  -0.066609   0.000000
   43  O  3  Z    0.016066   0.000000   0.048199   0.000000  -0.029605
   44  O  3 XX    0.192259   0.000000   0.326277   0.000000  -0.080915
   45  O  3 YY   -0.035818   0.000000  -0.585982   0.000000   0.592500
   46  O  3 ZZ   -0.156441   0.000000   0.259706   0.000000  -0.511585
   47  O  3 XY    0.000000   0.464475   0.000000  -0.039674   0.000000
   48  O  3 XZ    0.054167   0.000000  -0.385560   0.000000   0.292459
   49  O  3 YZ    0.000000  -0.535784   0.000000   0.712905   0.000000

                     41         42         43         44         45
                    2.4181     2.4211     2.5996     2.8150     2.8939
                     B1         B2         A2         A1         A1  
    1  S  1  S    0.000000   0.000000   0.000000  -0.035189  -0.074070
    2  S  1  S    0.000000   0.000000   0.000000  -0.337931  -0.482808
    3  S  1  S    0.000000   0.000000   0.000000  -0.902235  -1.586146
    4  S  1  S    0.000000   0.000000   0.000000  -1.092046  -1.293658
    5  S  1  X   -0.023926   0.000000   0.000000   0.000000   0.000000
    6  S  1  Y    0.000000   0.101559   0.000000   0.000000   0.000000
    7  S  1  Z    0.000000   0.000000   0.000000   0.112479   0.022864
    8  S  1  X   -0.143843   0.000000   0.000000   0.000000   0.000000
    9  S  1  Y    0.000000  -0.527235   0.000000   0.000000   0.000000
   10  S  1  Z    0.000000   0.000000   0.000000  -0.927031  -0.576662
   11  S  1  X   -0.173358   0.000000   0.000000   0.000000   0.000000
   12  S  1  Y    0.000000  -0.182153   0.000000   0.000000   0.000000
   13  S  1  Z    0.000000   0.000000   0.000000  -0.431925  -0.016871
   14  S  1 XX    0.000000   0.000000   0.000000   0.319948  -1.184799
   15  S  1 YY    0.000000   0.000000   0.000000   0.186143   0.527134
   16  S  1 ZZ    0.000000   0.000000   0.000000  -0.506091   0.657666
   17  S  1 XY    0.000000   0.000000   0.880089   0.000000   0.000000
   18  S  1 XZ    0.788827   0.000000   0.000000   0.000000   0.000000
   19  S  1 YZ    0.000000  -0.438244   0.000000   0.000000   0.000000
   20  O  2  S    0.006748   0.000000   0.000000  -0.032179  -0.033096
   21  O  2  S    0.493899   0.000000   0.000000  -0.588336  -0.217322
   22  O  2  S   -0.446738   0.000000   0.000000   1.417923   1.638196
   23  O  2  X    0.192717   0.000000   0.000000   0.057812   0.329280
   24  O  2  Y    0.000000  -0.040031   0.059424   0.000000   0.000000
   25  O  2  Z   -0.094020   0.000000   0.000000   0.020498  -0.230404
   26  O  2  X   -0.077719   0.000000   0.000000   0.744873   0.679336
   27  O  2  Y    0.000000   0.316222   0.310442   0.000000   0.000000
   28  O  2  Z    0.348699   0.000000   0.000000   0.044941  -0.576440
   29  O  2 XX    0.373133   0.000000   0.000000   0.832274   0.244787
   30  O  2 YY    0.238071   0.000000   0.000000  -0.295855  -0.410281
   31  O  2 ZZ   -0.611204   0.000000   0.000000  -0.536419   0.165494
   32  O  2 XY    0.000000   0.792789   0.668801   0.000000   0.000000
   33  O  2 XZ    0.435550   0.000000   0.000000   0.147100  -0.852732
   34  O  2 YZ    0.000000  -0.067411  -0.531947   0.000000   0.000000
   35  O  3  S   -0.006748   0.000000   0.000000  -0.032179  -0.033096
   36  O  3  S   -0.493899   0.000000   0.000000  -0.588336  -0.217322
   37  O  3  S    0.446738   0.000000   0.000000   1.417923   1.638196
   38  O  3  X    0.192717   0.000000   0.000000  -0.057812  -0.329280
   39  O  3  Y    0.000000  -0.040031  -0.059424   0.000000   0.000000
   40  O  3  Z    0.094020   0.000000   0.000000   0.020498  -0.230404
   41  O  3  X   -0.077719   0.000000   0.000000  -0.744873  -0.679336
   42  O  3  Y    0.000000   0.316222  -0.310442   0.000000   0.000000
   43  O  3  Z   -0.348699   0.000000   0.000000   0.044941  -0.576440
   44  O  3 XX   -0.373133   0.000000   0.000000   0.832274   0.244787
   45  O  3 YY   -0.238071   0.000000   0.000000  -0.295855  -0.410281
   46  O  3 ZZ    0.611204   0.000000   0.000000  -0.536419   0.165494
   47  O  3 XY    0.000000  -0.792789   0.668801   0.000000   0.000000
   48  O  3 XZ    0.435550   0.000000   0.000000  -0.147100   0.852732
   49  O  3 YZ    0.000000  -0.067411   0.531947   0.000000   0.000000

                     46
                    2.9604
                     B1  
    1  S  1  S    0.000000
    2  S  1  S    0.000000
    3  S  1  S    0.000000
    4  S  1  S    0.000000
    5  S  1  X   -0.203722
    6  S  1  Y    0.000000
    7  S  1  Z    0.000000
    8  S  1  X    2.230245
    9  S  1  Y    0.000000
   10  S  1  Z    0.000000
   11  S  1  X    0.395880
   12  S  1  Y    0.000000
   13  S  1  Z    0.000000
   14  S  1 XX    0.000000
   15  S  1 YY    0.000000
   16  S  1 ZZ    0.000000
   17  S  1 XY    0.000000
   18  S  1 XZ    0.868378
   19  S  1 YZ    0.000000
   20  O  2  S   -0.041985
   21  O  2  S   -0.314398
   22  O  2  S    1.928396
   23  O  2  X    0.419143
   24  O  2  Y    0.000000
   25  O  2  Z   -0.157251
   26  O  2  X    0.949581
   27  O  2  Y    0.000000
   28  O  2  Z   -0.391241
   29  O  2 XX    0.748382
   30  O  2 YY   -0.409481
   31  O  2 ZZ   -0.338901
   32  O  2 XY    0.000000
   33  O  2 XZ   -0.588715
   34  O  2 YZ    0.000000
   35  O  3  S    0.041985
   36  O  3  S    0.314398
   37  O  3  S   -1.928396
   38  O  3  X    0.419143
   39  O  3  Y    0.000000
   40  O  3  Z    0.157251
   41  O  3  X    0.949581
   42  O  3  Y    0.000000
   43  O  3  Z    0.391241
   44  O  3 XX   -0.748382
   45  O  3 YY    0.409481
   46  O  3 ZZ    0.338901
   47  O  3 XY    0.000000
   48  O  3 XZ   -0.588715
   49  O  3 YZ    0.000000
 ...... END OF RHF CALCULATION ......
 STEP CPU TIME =     4.70 TOTAL CPU TIME =        4.9 (    0.1 MIN)
 TOTAL WALL CLOCK TIME=        5.0 SECONDS, CPU UTILIZATION IS  99.80%

     ---------------------------------------------------------------------
     PROPERTIES FOR THE PBE      DFT FUNCTIONAL (RHF  TYPE) DENSITY MATRIX
     ---------------------------------------------------------------------

          -----------------
          ENERGY COMPONENTS
          -----------------

         WAVEFUNCTION NORMALIZATION =       1.0000000000

                ONE ELECTRON ENERGY =   -1009.8623171567
                TWO ELECTRON ENERGY =     333.4613431790
           NUCLEAR REPULSION ENERGY =     128.4613462920
                                      ------------------
                       TOTAL ENERGY =    -547.9396276858

 ELECTRON-ELECTRON POTENTIAL ENERGY =     333.4613431790
  NUCLEUS-ELECTRON POTENTIAL ENERGY =   -1560.4833994938
   NUCLEUS-NUCLEUS POTENTIAL ENERGY =     128.4613462920
                                      ------------------
             TOTAL POTENTIAL ENERGY =   -1098.5607100229
               TOTAL KINETIC ENERGY =     550.6210823371
                 VIRIAL RATIO (V/T) =       1.9951301272

          ---------------------------------------
          MULLIKEN AND LOWDIN POPULATION ANALYSES
          ---------------------------------------

     ATOMIC MULLIKEN POPULATION IN EACH MOLECULAR ORBITAL

                      1          2          3          4          5

                  2.000000   2.000000   2.000000   2.000000   2.000000

    1             2.000088   0.000550   0.001910   2.003869   1.998058
    2            -0.000044   0.999725   0.999045  -0.001934   0.000971
    3            -0.000044   0.999725   0.999045  -0.001934   0.000971

                      6          7          8          9         10

                  2.000000   2.000000   2.000000   2.000000   2.000000

    1             1.999905   1.999453   0.724261   0.595559   0.880776
    2             0.000047   0.000274   0.637870   0.702221   0.559612
    3             0.000047   0.000274   0.637870   0.702221   0.559612

                     11         12         13         14         15

                  2.000000   2.000000   2.000000   2.000000   2.000000

    1             0.886300   0.345208   0.221221   0.222569   0.218322
    2             0.556850   0.827396   0.889389   0.888716   0.890839
    3             0.556850   0.827396   0.889389   0.888716   0.890839

                     16

                  2.000000

    1             1.405827
    2             0.297087
    3             0.297087

               ----- POPULATIONS IN EACH AO -----
                             MULLIKEN      LOWDIN
              1  S  1  S      2.00027     1.99576
              2  S  1  S      2.01133     1.92161
              3  S  1  S      0.84978     0.49898
              4  S  1  S      1.05035     0.60501
              5  S  1  X      1.99687     1.95860
              6  S  1  Y      1.99573     1.95463
              7  S  1  Z      1.99707     1.96477
              8  S  1  X      0.72482     0.61648
              9  S  1  Y      0.64645     0.57776
             10  S  1  Z      0.85120     0.81450
             11  S  1  X      0.07592     0.24677
             12  S  1  Y      0.21107     0.28985
             13  S  1  Z      0.23766     0.36825
             14  S  1 XX      0.14415     0.39449
             15  S  1 YY      0.22510     0.25634
             16  S  1 ZZ      0.22257     0.32689
             17  S  1 XY      0.23609     0.28298
             18  S  1 XZ      0.02743     0.29291
             19  S  1 YZ      0.00000     0.02764
             20  O  2  S      1.99805     1.97898
             21  O  2  S      0.80478     0.61078
             22  O  2  S      0.89050     0.49422
             23  O  2  X      1.06071     1.02008
             24  O  2  Y      0.91763     0.86166
             25  O  2  Z      1.10069     1.06443
             26  O  2  X      0.39581     0.51487
             27  O  2  Y      0.51690     0.55356
             28  O  2  Z      0.52460     0.58850
             29  O  2 XX      0.00622     0.21091
             30  O  2 YY      0.00854     0.18180
             31  O  2 ZZ      0.01162     0.18267
             32  O  2 XY      0.00979     0.01551
             33  O  2 XZ      0.00223     0.02207
             34  O  2 YZ      0.00000     0.00284
             35  O  3  S      1.99805     1.97898
             36  O  3  S      0.80478     0.61078
             37  O  3  S      0.89050     0.49422
             38  O  3  X      1.06071     1.02008
             39  O  3  Y      0.91763     0.86166
             40  O  3  Z      1.10069     1.06443
             41  O  3  X      0.39581     0.51487
             42  O  3  Y      0.51690     0.55356
             43  O  3  Z      0.52460     0.58850
             44  O  3 XX      0.00622     0.21091
             45  O  3 YY      0.00854     0.18180
             46  O  3 ZZ      0.01162     0.18267
             47  O  3 XY      0.00979     0.01551
             48  O  3 XZ      0.00223     0.02207
             49  O  3 YZ      0.00000     0.00284

          ----- MULLIKEN ATOMIC OVERLAP POPULATIONS -----
          (OFF-DIAGONAL ELEMENTS NEED TO BE MULTIPLIED BY 2)

             1           2           3

    1   14.8194189
    2    0.3422282   7.9177077
    3    0.3422282  -0.0118736   7.9177077

          TOTAL MULLIKEN AND LOWDIN ATOMIC POPULATIONS
       ATOM         MULL.POP.    CHARGE          LOW.POP.     CHARGE
    1 S            15.503875    0.496125        15.394212    0.605788
    2 O             8.248062   -0.248062         8.302894   -0.302894
    3 O             8.248062   -0.248062         8.302894   -0.302894

          MULLIKEN SPHERICAL HARMONIC POPULATIONS
       ATOM           S       P       D      F      G      H      I    TOTAL
    1 S             5.91    8.74    0.86   0.00   0.00   0.00   0.00   15.50
    2 O             3.69    4.52    0.04   0.00   0.00   0.00   0.00    8.25
    3 O             3.69    4.52    0.04   0.00   0.00   0.00   0.00    8.25

          -------------------------------
          BOND ORDER AND VALENCE ANALYSIS     BOND ORDER THRESHOLD=0.050
          -------------------------------

                   BOND                       BOND                       BOND
  ATOM PAIR DIST  ORDER      ATOM PAIR DIST  ORDER      ATOM PAIR DIST  ORDER
    1   2  1.200  2.077        1   3  1.200  2.077        2   3  2.175  0.094

                       TOTAL       BONDED        FREE
      ATOM            VALENCE     VALENCE     VALENCE
    1 S                 4.154       4.154       0.000
    2 O                 2.171       2.171       0.000
    3 O                 2.171       2.171       0.000

          ---------------------
          ELECTROSTATIC MOMENTS
          ---------------------

 POINT   1           X           Y           Z (BOHR)    CHARGE
                 0.000000    0.000000    0.000000        0.00 (A.U.)
         DX          DY          DZ         /D/  (DEBYE)
     0.000000    0.000000   -0.349247    0.349247
 ...... END OF PROPERTY EVALUATION ......
 STEP CPU TIME =     0.01 TOTAL CPU TIME =        5.0 (    0.1 MIN)
 TOTAL WALL CLOCK TIME=        5.0 SECONDS, CPU UTILIZATION IS 100.00%
               580000  WORDS OF DYNAMIC MEMORY USED
 EXECUTION OF GAMESS TERMINATED NORMALLY Thu Feb 26 00:13:09 2015
 DDI: 263624 bytes (0.3 MB / 0 MWords) used by master data server.

 ----------------------------------------
 CPU timing information for all processes
 ========================================
 0: 4.881 + 0.84 = 4.966
 ----------------------------------------
 ddikick.x: exited gracefully.
----- accounting info -----
Files used on the master node dftfe.crc.nd.edu were:
-rw-r--r-- 1 pmehta1 campus   37475 Feb 26 00:13 /tmp/gamess.dat
-rw-r--r-- 1 pmehta1 campus     142 Feb 26 00:13 /tmp/gamess.F05
-rw-r--r-- 1 pmehta1 campus 2340312 Feb 26 00:13 /tmp/gamess.F08
-rw-r--r-- 1 pmehta1 campus 1220440 Feb 26 00:13 /tmp/gamess.F10
Thu Feb 26 00:13:12 EST 2015
0.241u 0.175s 0:08.40 4.8%	0+0k 0+112io 0pf+0w
