----- GAMESS execution script 'rungms' -----
This job is running on host dftfe.crc.nd.edu
under operating system Linux at Thu Feb 26 00:11:42 EST 2015
Available scratch disk space (Kbyte units) at beginning of the job is
Filesystem     1K-blocks     Used Available Use% Mounted on
/dev/sda2      147771864 22809436 117455996  17% /
GAMESS temporary binary files will be written to /tmp
GAMESS supplementary output files will be written to /tmp
Copying input file gamess.inp to your run's scratch directory...

 Distributed Data Interface kickoff program.
 Initiating 1 compute processes on 1 nodes to run the following command:
 /opt/crc/gamess/2012R1/gamess/gamess.00.x gamess 

          ******************************************************
          *         GAMESS VERSION =  1 MAY 2012 (R1)          *
          *             FROM IOWA STATE UNIVERSITY             *
          * M.W.SCHMIDT, K.K.BALDRIDGE, J.A.BOATZ, S.T.ELBERT, *
          *   M.S.GORDON, J.H.JENSEN, S.KOSEKI, N.MATSUNAGA,   *
          *          K.A.NGUYEN, S.J.SU, T.L.WINDUS,           *
          *       TOGETHER WITH M.DUPUIS, J.A.MONTGOMERY       *
          *         J.COMPUT.CHEM.  14, 1347-1363(1993)        *
          **************** 64 BIT LINUX VERSION ****************

  SINCE 1993, STUDENTS AND POSTDOCS WORKING AT IOWA STATE UNIVERSITY
  AND ALSO IN THEIR VARIOUS JOBS AFTER LEAVING ISU HAVE MADE IMPORTANT
  CONTRIBUTIONS TO THE CODE:
     IVANA ADAMOVIC, CHRISTINE AIKENS, YURI ALEXEEV, POOJA ARORA,
     ANDREY ASADCHEV, ROB BELL, PRADIPTA BANDYOPADHYAY, JONATHAN BENTZ,
     BRETT BODE, GALINA CHABAN, WEI CHEN, CHEOL HO CHOI, PAUL DAY,
     ALBERT DEFUSCO, TIM DUDLEY, DMITRI FEDOROV, GRAHAM FLETCHER,
     MARK FREITAG, KURT GLAESEMANN, DAN KEMP, GRANT MERRILL,
     NORIYUKI MINEZAWA, JONATHAN MULLIN, TAKESHI NAGATA,
     SEAN NEDD, HEATHER NETZLOFF, BOSILJKA NJEGIC, RYAN OLSON, MIKE PAK,
     JIM SHOEMAKER, LYUDMILA SLIPCHENKO, SAROM SOK, JIE SONG,
     TETSUYA TAKETSUGU, SIMON WEBB, SOOHAENG YOO, FEDERICO ZAHARIEV

  ADDITIONAL CODE HAS BEEN PROVIDED BY COLLABORATORS IN OTHER GROUPS:
     IOWA STATE UNIVERSITY:
          JOE IVANIC, LAIMUTIS BYTAUTAS, KLAUS RUEDENBERG
     UNIVERSITY OF TOKYO: KIMIHIKO HIRAO, TAKAHITO NAKAJIMA,
          TAKAO TSUNEDA, MUNEAKI KAMIYA, SUSUMU YANAGISAWA,
          KIYOSHI YAGI, MAHITO CHIBA, SEIKEN TOKURA, NAOAKI KAWAKAMI
     UNIVERSITY OF AARHUS: FRANK JENSEN
     UNIVERSITY OF IOWA: VISVALDAS KAIRYS, HUI LI
     NATIONAL INST. OF STANDARDS AND TECHNOLOGY: WALT STEVENS, DAVID GARMER
     UNIVERSITY OF PISA: BENEDETTA MENNUCCI, JACOPO TOMASI
     UNIVERSITY OF MEMPHIS: HENRY KURTZ, PRAKASHAN KORAMBATH
     UNIVERSITY OF ALBERTA: TOBY ZENG, MARIUSZ KLOBUKOWSKI
     UNIVERSITY OF NEW ENGLAND: MARK SPACKMAN
     MIE UNIVERSITY: HIROAKI UMEDA
     MICHIGAN STATE UNIVERSITY:
          KAROL KOWALSKI, MARTA WLOCH, JEFFREY GOUR, JESSE LUTZ, PIOTR PIECUCH
     UNIVERSITY OF SILESIA: MONIKA MUSIAL, STANISLAW KUCHARSKI
     FACULTES UNIVERSITAIRES NOTRE-DAME DE LA PAIX:
          OLIVIER QUINET, BENOIT CHAMPAGNE
     UNIVERSITY OF CALIFORNIA - SANTA BARBARA: BERNARD KIRTMAN
     INSTITUTE FOR MOLECULAR SCIENCE:
          KAZUYA ISHIMURA, MICHIO KATOUDA, AND SHIGERU NAGASE
     UNIVERSITY OF NOTRE DAME: DAN CHIPMAN
     KYUSHU UNIVERSITY:
          HARUYUKI NAKANO,
          FENG LONG GU, JACEK KORCHOWIEC, MARCIN MAKOWSKI, AND YURIKO AOKI,
          HIROTOSHI MORI AND EISAKU MIYOSHI
     PENNSYLVANIA STATE UNIVERSITY:
          TZVETELIN IORDANOV, CHET SWALINA, JONATHAN SKONE,
          SHARON HAMMES-SCHIFFER
     WASEDA UNIVERSITY:
          MASATO KOBAYASHI, TOMOKO AKAMA, TSUGUKI TOUMA,
          TAKESHI YOSHIKAWA, YASUHIRO IKABATA, HIROMI NAKAI
     UNIVERSITY OF NEBRASKA:
          PEIFENG SU, DEJUN SI, NANDUN THELLAMUREGE, YALI WANG, HUI LI
     UNIVERSITY OF ZURICH:
          ROBERTO PEVERATI, KIM BALDRIDGE
     N. COPERNICUS UNIVERSITY AND JACKSON STATE UNIVERSITY:
          MARIA BARYSZ

 EXECUTION OF GAMESS BEGUN Thu Feb 26 00:11:42 2015

            ECHO OF THE FIRST FEW INPUT CARDS -
 INPUT CARD> $BASIS GBASIS=PC1 $END                                                         
 INPUT CARD> $CONTRL COORD=ZMT ISPHER=1 RUNTYP=ENERGY DFTTYP=PBE $END                       
 INPUT CARD>                                                                                
 INPUT CARD> $DATA                                                                          
 INPUT CARD>Title                                                                           
 INPUT CARD>Cnv 2                                                                           
 INPUT CARD>                                                                                
 INPUT CARD>S                                                                               
 INPUT CARD>O 1 1.10                                                                        
 INPUT CARD>O 1 1.10 2 130.0                                                                
 INPUT CARD> $END                                                                           
    1000000 WORDS OF MEMORY AVAILABLE

     BASIS OPTIONS
     -------------
     GBASIS=PC1          IGAUSS=       0      POLAR=NONE    
     NDFUNC=       0     NFFUNC=       0     DIFFSP=       F
     NPFUNC=       0      DIFFS=       F     BASNAM=        


     RUN TITLE
     ---------
 Title                                                                           

 THE POINT GROUP OF THE MOLECULE IS CNV     
 THE ORDER OF THE PRINCIPAL AXIS IS     2

 YOUR FULLY SUBSTITUTED Z-MATRIX IS
 S   
 O      1   1.1000000
 O      1   1.1000000  2  130.0000

 THE MOMENTS OF INERTIA ARE (AMU-ANGSTROM**2)
 IXX=     3.456   IYY=    31.794   IZZ=    35.250

 ATOM      ATOMIC                      COORDINATES (BOHR)
           CHARGE         X                   Y                   Z
 S          16.0     0.0000000000        0.0000000000       -0.4393698869
 O           8.0    -1.8839407158        0.0000000000        0.4391260964
 O           8.0     1.8839407158        0.0000000000        0.4391260964

          INTERNUCLEAR DISTANCES (ANGS.)
          ------------------------------

                1 S          2 O          3 O     

   1 S       0.0000000    1.1000000 *  1.1000000 *
   2 O       1.1000000 *  0.0000000    1.9938771 *
   3 O       1.1000000 *  1.9938771 *  0.0000000  

  * ... LESS THAN  3.000


     ATOMIC BASIS SET
     ----------------
 THE CONTRACTED PRIMITIVE FUNCTIONS HAVE BEEN UNNORMALIZED
 THE CONTRACTED BASIS FUNCTIONS ARE NOW NORMALIZED TO UNITY

  SHELL TYPE  PRIMITIVE        EXPONENT          CONTRACTION COEFFICIENT(S)

 S         

      1   S       1         55510.0000000    0.000587229760
      1   S       2          8326.7000000    0.004532413947
      1   S       3          1895.6000000    0.023265261648
      1   S       4           536.7700000    0.089696133027
      1   S       5           174.6700000    0.254098332277
      1   S       6            62.5780000    0.438665087637
      1   S       7            23.5730000    0.314547135094
      1   S       8             5.8908000    0.032727897102

      2   S       9          8326.7000000   -0.000019755715
      2   S      10          1895.6000000   -0.000043822381
      2   S      11           536.7700000   -0.001730264906
      2   S      12           174.6700000   -0.009381263460
      2   S      13            62.5780000   -0.064050766303
      2   S      14            23.5730000   -0.082478179196
      2   S      15             5.8908000    0.478342956889
      2   S      16             2.1852000    0.626896670208

      3   S      17          1895.6000000    0.000016227260
      3   S      18           536.7700000    0.000191135619
      3   S      19           174.6700000    0.001952069674
      3   S      20            62.5780000    0.010578701087
      3   S      21            23.5730000    0.022164934551
      3   S      22             5.8908000   -0.184968323118
      3   S      23             2.1852000   -0.480920750976
      3   S      24             0.4528200    1.243822243872

      4   S      25             0.1620200    1.000000000000

      5   P      26           395.4500000    0.004642761329
      5   P      27            92.8340000    0.036023396489
      5   P      28            29.2660000    0.149058869978
      5   P      29            10.5950000    0.360033266263
      5   P      30             4.0272000    0.455756476221
      5   P      31             1.5484000    0.206167664178

      6   P      32            92.8340000    0.000169901442
      6   P      33            29.2660000   -0.002541839934
      6   P      34            10.5950000   -0.007867614595
      6   P      35             4.0272000   -0.037231009184
      6   P      36             1.5484000    0.161417246830
      6   P      37             0.4613400    0.902230419976

      7   P      38             0.1313100    1.000000000000

      8   D      39             0.5500000    1.000000000000

 O         

     15   S      40          2306.7000000    0.005424388755
     15   S      41           347.1500000    0.040474749465
     15   S      42            78.8900000    0.180219634554
     15   S      43            21.8760000    0.462370311787
     15   S      44             6.6646000    0.454888396263

     16   S      45           347.1500000   -0.000655003786
     16   S      46            78.8900000   -0.005362052952
     16   S      47            21.8760000   -0.074902158894
     16   S      48             6.6646000   -0.181442579655
     16   S      49             1.0669000    1.102006874042

     17   S      50             0.3070000    1.000000000000

     18   P      51            17.0220000    0.068979967443
     18   P      52             3.6838000    0.351985516325
     18   P      53             0.9923400    0.724036547822

     19   P      54             0.2448700    1.000000000000

     20   D      55             1.0000000    1.000000000000

 TOTAL NUMBER OF BASIS SET SHELLS             =   20
 NUMBER OF CARTESIAN GAUSSIAN BASIS FUNCTIONS =   49
 NOTE: THIS RUN WILL RESTRICT THE MO VARIATION SPACE TO SPHERICAL HARMONICS.
 THE NUMBER OF ORBITALS KEPT IN THE VARIATIONAL SPACE WILL BE PRINTED LATER.
 NUMBER OF ELECTRONS                          =   32
 CHARGE OF MOLECULE                           =    0
 SPIN MULTIPLICITY                            =    1
 NUMBER OF OCCUPIED ORBITALS (ALPHA)          =   16
 NUMBER OF OCCUPIED ORBITALS (BETA )          =   16
 TOTAL NUMBER OF ATOMS                        =    3
 THE NUCLEAR REPULSION ENERGY IS      140.1396505003

     LEBEDEV GRID-BASED DFT OPTIONS
     ------------------------------
     DFTTYP=PBE     
     NRAD  =      96     NLEB  =     302
     NRAD0 =      24     NLEB0 =     110
     SWOFF =    5.00E-03 (PURE SCF -> DFT)
     SWITCH=    3.00E-04 (COARSE -> TIGHT GRID)
     THRESH=    0.00E+00 GTHRE=    1.00E+00

 GRIMME'S EMPIRICAL DISPERSION CORRECTION= F

     $CONTRL OPTIONS
     ---------------
 SCFTYP=RHF          RUNTYP=ENERGY       EXETYP=RUN     
 MPLEVL=       0     CITYP =NONE         CCTYP =NONE         VBTYP =NONE    
 DFTTYP=PBE          TDDFT =NONE    
 MULT  =       1     ICHARG=       0     NZVAR =       0     COORD =ZMT     
 PP    =NONE         RELWFN=NONE         LOCAL =NONE         NUMGRD=       F
 ISPHER=       1     NOSYM =       0     MAXIT =      30     UNITS =ANGS    
 PLTORB=       F     MOLPLT=       F     AIMPAC=       F     FRIEND=        
 NPRINT=       7     IREST =       0     GEOM  =INPUT   
 NORMF =       0     NORMP =       0     ITOL  =      20     ICUT  =       9
 INTTYP=BEST         GRDTYP=BEST         QMTTOL= 1.0E-06

     $SYSTEM OPTIONS
     ---------------
  REPLICATED MEMORY=     1000000 WORDS (ON EVERY NODE).
 DISTRIBUTED MEMDDI=           0 MILLION WORDS IN AGGREGATE,
 MEMDDI DISTRIBUTED OVER   1 PROCESSORS IS           0 WORDS/PROCESSOR.
 TOTAL MEMORY REQUESTED ON EACH PROCESSOR=     1000000 WORDS.
 TIMLIM=      525600.00 MINUTES, OR     365.0 DAYS.
 PARALL= F  BALTYP=  DLB     KDIAG=    0  COREFL= F
 MXSEQ2=     300 MXSEQ3=     150

          ----------------
          PROPERTIES INPUT
          ----------------

     MOMENTS            FIELD           POTENTIAL          DENSITY
 IEMOM =       1   IEFLD =       0   IEPOT =       0   IEDEN =       0
 WHERE =COMASS     WHERE =NUCLEI     WHERE =NUCLEI     WHERE =NUCLEI  
 OUTPUT=BOTH       OUTPUT=BOTH       OUTPUT=BOTH       OUTPUT=BOTH    
 IEMINT=       0   IEFINT=       0                     IEDINT=       0
                                                       MORB  =       0
          EXTRAPOLATION IN EFFECT
          DIIS IN EFFECT
 ORBITAL PRINTING OPTION: NPREO=     1    49     2     1

     -------------------------------
     INTEGRAL TRANSFORMATION OPTIONS
     -------------------------------
     NWORD  =            0
     CUTOFF = 1.0E-09     MPTRAN =       0
     DIRTRF =       F     AOINTS =DUP     

          ----------------------
          INTEGRAL INPUT OPTIONS
          ----------------------
 NOPK  =       1 NORDER=       0 SCHWRZ=       F

   --- ENCODED Z MATRIX ---
 COORD  TYPE   I   J   K   L   M   N
    1      1    3   1
    2      1    2   1
    3      2    2   1   3

 THE DETERMINANT OF THE G MATRIX IS 10**(    -4)

 THE DETERMINANT OF THE G MATRIX IS 10**(    -4)
 * * * WARNING * * *
 YOUR B MATRIX HAS A SMALL DETERMINANT.
 THIS SUGGESTS YOU MAY HAVE BADLY CHOSEN COORDINATES.

     ------------------------------------------
     THE POINT GROUP IS CNV, NAXIS= 2, ORDER= 4
     ------------------------------------------

 -- VARIATIONAL SPACE WILL BE RESTRICTED TO PURE SPHERICAL HARMONICS ONLY --
 AFTER EXCLUDING CONTAMINANT COMBINATIONS FROM THE CARTESIAN GAUSSIAN BASIS
 SET, THE NUMBER OF SPHERICAL HARMONICS KEPT IN THE VARIATION SPACE IS   46

     DIMENSIONS OF THE SYMMETRY SUBSPACES ARE
 A1  =   19     A2  =    5     B1  =   14     B2  =    8

 ..... DONE SETTING UP THE RUN .....
 STEP CPU TIME =     0.07 TOTAL CPU TIME =        0.1 (    0.0 MIN)
 TOTAL WALL CLOCK TIME=        0.1 SECONDS, CPU UTILIZATION IS  87.50%

          ********************
          1 ELECTRON INTEGRALS
          ********************
 ...... END OF ONE-ELECTRON INTEGRALS ......
 STEP CPU TIME =     0.00 TOTAL CPU TIME =        0.1 (    0.0 MIN)
 TOTAL WALL CLOCK TIME=        0.1 SECONDS, CPU UTILIZATION IS  87.50%

          -------------
          GUESS OPTIONS
          -------------
          GUESS =HUCKEL            NORB  =       0          NORDER=       0
          MIX   =       F          PRTMO =       F          PUNMO =       F
          TOLZ  = 1.0E-08          TOLE  = 1.0E-05
          SYMDEN=       F          PURIFY=       F

 INITIAL GUESS ORBITALS GENERATED BY HUCKEL   ROUTINE.
 HUCKEL GUESS REQUIRES     21583 WORDS.

 STATISTICS FOR GENERATION OF SYMMETRY ORBITAL -Q- MATRIX
 NUMBER OF CARTESIAN ATOMIC ORBITALS=         49
 NUMBER OF SPHERICAL CONTAMINANTS DROPPED=     3
 NUMBER OF LINEARLY DEPENDENT MOS DROPPED=     0
 TOTAL NUMBER OF MOS IN VARIATION SPACE=      46

 SYMMETRIES FOR INITIAL GUESS ORBITALS FOLLOW.   BOTH SET(S).
    16 ORBITALS ARE OCCUPIED (    7 CORE ORBITALS).
     8=?A1      9=?B1     10=B2      11=A1      12=A1      13=B1      14=A2  
    15=B1      16=A1      17=B2      18=B1      19=A1      20=A1      21=A1  
    22=A1      23=A1      24=A1      25=A1      26=A1  
 ...... END OF INITIAL ORBITAL SELECTION ......
 STEP CPU TIME =     0.01 TOTAL CPU TIME =        0.1 (    0.0 MIN)
 TOTAL WALL CLOCK TIME=        0.1 SECONDS, CPU UTILIZATION IS  88.89%

                    ----------------------
                    AO INTEGRAL TECHNOLOGY
                    ----------------------
     S,P,L SHELL ROTATED AXIS INTEGRALS, REPROGRAMMED BY
        KAZUYA ISHIMURA (IMS) AND JOSE SIERRA (SYNSTAR).
     S,P,D,L SHELL ROTATED AXIS INTEGRALS PROGRAMMED BY
        KAZUYA ISHIMURA (INSTITUTE FOR MOLECULAR SCIENCE).
     S,P,D,F,G SHELL TO TOTAL QUARTET ANGULAR MOMENTUM SUM 5,
        ERIC PROGRAM BY GRAHAM FLETCHER (ELORET AND NASA ADVANCED
        SUPERCOMPUTING DIVISION, AMES RESEARCH CENTER).
     S,P,D,F,G,L SHELL GENERAL RYS QUADRATURE PROGRAMMED BY
        MICHEL DUPUIS (PACIFIC NORTHWEST NATIONAL LABORATORY).

          --------------------
          2 ELECTRON INTEGRALS
          --------------------

 THE -PK- OPTION IS OFF, THE INTEGRALS ARE NOT IN SUPERMATRIX FORM.
 STORING   15000 INTEGRALS/RECORD ON DISK, USING 12 BYTES/INTEGRAL.
 TWO ELECTRON INTEGRAL EVALUATION REQUIRES   90606 WORDS OF MEMORY.
 II,JST,KST,LST =  1  1  1  1 NREC =         1 INTLOC =    1
 II,JST,KST,LST =  2  1  1  1 NREC =         1 INTLOC =    2
 II,JST,KST,LST =  3  1  1  1 NREC =         1 INTLOC =    7
 II,JST,KST,LST =  4  1  1  1 NREC =         1 INTLOC =   22
 II,JST,KST,LST =  5  1  1  1 NREC =         1 INTLOC =   56
 II,JST,KST,LST =  6  1  1  1 NREC =         1 INTLOC =  125
 II,JST,KST,LST =  7  1  1  1 NREC =         1 INTLOC =  329
 II,JST,KST,LST =  8  1  1  1 NREC =         1 INTLOC =  776
 II,JST,KST,LST =  9  1  1  1 NREC =         1 INTLOC = 2864
 II,JST,KST,LST = 10  1  1  1 NREC =         1 INTLOC = 2864
 II,JST,KST,LST = 11  1  1  1 NREC =         1 INTLOC = 2864
 II,JST,KST,LST = 12  1  1  1 NREC =         1 INTLOC = 2864
 II,JST,KST,LST = 13  1  1  1 NREC =         1 INTLOC = 2864
 II,JST,KST,LST = 14  1  1  1 NREC =         1 INTLOC = 2864
 II,JST,KST,LST = 15  1  1  1 NREC =         1 INTLOC = 2864
 II,JST,KST,LST = 16  1  1  1 NREC =         1 INTLOC = 5257
 II,JST,KST,LST = 17  1  1  1 NREC =         1 INTLOC = 8642
 II,JST,KST,LST = 18  1  1  1 NREC =         1 INTLOC =13150
 II,JST,KST,LST = 19  1  1  1 NREC =         3 INTLOC = 1804
 II,JST,KST,LST = 20  1  1  1 NREC =         5 INTLOC = 3425
 TOTAL NUMBER OF NONZERO TWO-ELECTRON INTEGRALS =              183870
         13 INTEGRAL RECORDS WERE STORED ON DISK FILE  8.
  ...... END OF TWO-ELECTRON INTEGRALS .....
 STEP CPU TIME =     0.17 TOTAL CPU TIME =        0.3 (    0.0 MIN)
 TOTAL WALL CLOCK TIME=        0.3 SECONDS, CPU UTILIZATION IS  96.15%

          --------------------------
               R-PBE SCF CALCULATION
          --------------------------

     NUCLEAR ENERGY =       140.1396505003
     MAXIT =   30     NPUNCH=    2
     EXTRAP=T  DAMP=F  SHIFT=F  RSTRCT=F  DIIS=T  DEM=F  SOSCF=F
         DENSITY MATRIX CONVERGENCE THRESHOLD=  1.00E-05
     COARSE -> FINE DFT GRID SWITCH THRESHOLD=  3.00E-04 (SWITCH IN $DFT)
                   HF -> DFT SWITCH THRESHOLD=  5.00E-03 (SWOFF IN $DFT)
     MEMORY REQUIRED FOR RHF ITERS=    183108 WORDS.

 DFT CODE IS SWITCHING FROM THE FINE GRID NRAD= 96,  NLEB=  302
                      TO THE COARSE GRID NRAD0= 24, NLEB0=  110

     EXCHANGE FUNCTIONAL   =PBE       
     CORRELATION FUNCTIONAL=PBE       
     DFT THRESHOLD         =.460E-07
     GRID CHANGE THRESHOLD =.300E-03
 FOR AN EULER-MACLAURIN QUADRATURE USING  96 RADIAL POINTS:
 SMALLEST GAUSSIAN PRIMITIVE EXPONENT=        0.1313100000 OF TYPE -P-
 ON ATOM NUMBER   1 HAS RADIAL NORMALIZATION=  1.000000
  LARGEST GAUSSIAN PRIMITIVE EXPONENT=    55510.0000000000 OF TYPE -S-
 ON ATOM NUMBER   1 HAS RADIAL NORMALIZATION=  0.999999
 DFT IS SWITCHED OFF, PERFORMING PURE SCF UNTIL SWOFF THRESHOLD IS REACHED.

 ITER EX DEM     TOTAL ENERGY        E CHANGE  DENSITY CHANGE    DIIS ERROR
   1  0  0     -545.0520639243  -545.0520639243   0.555920188   1.099533421
          * * *   INITIATING DIIS PROCEDURE   * * *
   2  1  0     -546.3743478118    -1.3222838875   0.846362883   0.161046906
   3  2  0     -546.4584948982    -0.0841470864   0.079106987   0.055309308
   4  3  0     -546.4692257917    -0.0107308935   0.122757544   0.018285366
   5  4  0     -546.4707062631    -0.0014804715   0.049609260   0.007441069
   6  5  0     -546.4708664019    -0.0001601387   0.011546038   0.001459595
   7  6  0     -546.4708776525    -0.0000112507   0.000204224   0.000113301
 CONVERGED TO SWOFF, SO DFT CALCULATION IS NOW SWITCHED ON.
 DFT CODE IS SWITCHING BACK TO THE FINE GRID
          * * *   INITIATING DIIS PROCEDURE   * * *
   8  7  0     -547.4923495012    -1.0214718487   0.169421280   0.080730952
   9  8  0     -547.5078284751    -0.0154789739   0.068905444   0.028514686
  10  9  0     -547.5078618244    -0.0000333493   0.024127610   0.024957813
  11 10  0     -547.5097370410    -0.0018752166   0.007202728   0.004252756
  12 11  0     -547.5097717964    -0.0000347554   0.001617873   0.000436169
  13 12  0     -547.5097721100    -0.0000003136   0.000322404   0.000032957
  14 13  0     -547.5097721145    -0.0000000046   0.000034423   0.000006899
  15 14  0     -547.5097721147    -0.0000000001   0.000002719   0.000000590
  16 15  0     -547.5097721147     0.0000000000   0.000000357   0.000000065

          -----------------
          DENSITY CONVERGED
          -----------------
     TIME TO FORM FOCK OPERATORS=       4.7 SECONDS (       0.3 SEC/ITER)
     TIME TO SOLVE SCF EQUATIONS=       0.0 SECONDS (       0.0 SEC/ITER)

 FINAL R-PBE ENERGY IS     -547.5097721147 AFTER  16 ITERATIONS
 DFT EXCHANGE + CORRELATION ENERGY =       -43.3798962876
 TOTAL ELECTRON NUMBER             =        31.9999920022

          ------------
          EIGENVECTORS
          ------------

                      1          2          3          4          5
                  -88.1050   -18.7425   -18.7425    -7.7962    -5.8224
                     A1         B1         A1         A1         B1  
    1  S  1  S    1.002977   0.000000  -0.000102  -0.273529   0.000000
    2  S  1  S   -0.010073   0.000000   0.000064   1.038244   0.000000
    3  S  1  S    0.002184   0.000000  -0.001994   0.044716   0.000000
    4  S  1  S   -0.000192   0.000000   0.011412  -0.006197   0.000000
    5  S  1  X    0.000000  -0.000368   0.000000   0.000000   0.991932
    6  S  1  Y    0.000000   0.000000   0.000000   0.000000   0.000000
    7  S  1  Z    0.000046   0.000000  -0.000076   0.017774   0.000000
    8  S  1  X    0.000000   0.004517   0.000000   0.000000   0.015036
    9  S  1  Y    0.000000   0.000000   0.000000   0.000000   0.000000
   10  S  1  Z    0.000244   0.000000  -0.000321   0.003296   0.000000
   11  S  1  X    0.000000  -0.005861   0.000000   0.000000  -0.000037
   12  S  1  Y    0.000000   0.000000   0.000000   0.000000   0.000000
   13  S  1  Z    0.000037   0.000000   0.004502   0.000019   0.000000
   14  S  1 XX    0.000353   0.000000  -0.003181   0.003411   0.000000
   15  S  1 YY   -0.000199   0.000000   0.001469  -0.001839   0.000000
   16  S  1 ZZ   -0.000154   0.000000   0.001712  -0.001572   0.000000
   17  S  1 XY    0.000000   0.000000   0.000000   0.000000   0.000000
   18  S  1 XZ    0.000000   0.003918   0.000000   0.000000   0.004113
   19  S  1 YZ    0.000000   0.000000   0.000000   0.000000   0.000000
   20  O  2  S   -0.000009   0.703173   0.703164  -0.002377   0.004515
   21  O  2  S   -0.000098   0.028414   0.028010   0.001200  -0.004370
   22  O  2  S   -0.000530  -0.011720  -0.014123  -0.003948   0.001574
   23  O  2  X   -0.000158   0.003099   0.002413   0.002599  -0.006275
   24  O  2  Y    0.000000   0.000000   0.000000   0.000000   0.000000
   25  O  2  Z    0.000101  -0.001128  -0.001192  -0.000966   0.003822
   26  O  2  X   -0.000307  -0.000701  -0.003181  -0.002902   0.001117
   27  O  2  Y    0.000000   0.000000   0.000000   0.000000   0.000000
   28  O  2  Z    0.000205   0.001669  -0.000316   0.001856  -0.000092
   29  O  2 XX    0.000017   0.000815   0.000125   0.002246  -0.002335
   30  O  2 YY    0.000019  -0.000125  -0.000461  -0.001303   0.002099
   31  O  2 ZZ   -0.000036  -0.000690   0.000336  -0.000944   0.000237
   32  O  2 XY    0.000000   0.000000   0.000000   0.000000   0.000000
   33  O  2 XZ    0.000045  -0.000333  -0.000682  -0.001618   0.003098
   34  O  2 YZ    0.000000   0.000000   0.000000   0.000000   0.000000
   35  O  3  S   -0.000009  -0.703173   0.703164  -0.002377  -0.004515
   36  O  3  S   -0.000098  -0.028414   0.028010   0.001200   0.004370
   37  O  3  S   -0.000530   0.011720  -0.014123  -0.003948  -0.001574
   38  O  3  X    0.000158   0.003099  -0.002413  -0.002599  -0.006275
   39  O  3  Y    0.000000   0.000000   0.000000   0.000000   0.000000
   40  O  3  Z    0.000101   0.001128  -0.001192  -0.000966  -0.003822
   41  O  3  X    0.000307  -0.000701   0.003181   0.002902   0.001117
   42  O  3  Y    0.000000   0.000000   0.000000   0.000000   0.000000
   43  O  3  Z    0.000205  -0.001669  -0.000316   0.001856   0.000092
   44  O  3 XX    0.000017  -0.000815   0.000125   0.002246   0.002335
   45  O  3 YY    0.000019   0.000125  -0.000461  -0.001303  -0.002099
   46  O  3 ZZ   -0.000036   0.000690   0.000336  -0.000944  -0.000237
   47  O  3 XY    0.000000   0.000000   0.000000   0.000000   0.000000
   48  O  3 XZ   -0.000045  -0.000333   0.000682   0.001618   0.003098
   49  O  3 YZ    0.000000   0.000000   0.000000   0.000000   0.000000

                      6          7          8          9         10
                   -5.8033    -5.7989    -1.2402    -1.1041    -0.5682
                     B2         A1         A1         B1         B2  
    1  S  1  S    0.000000   0.005679   0.065663   0.000000   0.000000
    2  S  1  S    0.000000  -0.021518  -0.224209   0.000000   0.000000
    3  S  1  S    0.000000   0.001237   0.308493   0.000000   0.000000
    4  S  1  S    0.000000   0.000656   0.064351   0.000000   0.000000
    5  S  1  X    0.000000   0.000000   0.000000  -0.240593   0.000000
    6  S  1  Y    0.995796   0.000000   0.000000   0.000000  -0.213224
    7  S  1  Z    0.000000   0.994990  -0.098044   0.000000   0.000000
    8  S  1  X    0.000000   0.000000   0.000000   0.351358   0.000000
    9  S  1  Y    0.011785   0.000000   0.000000   0.000000   0.449487
   10  S  1  Z    0.000000   0.011918   0.129099   0.000000   0.000000
   11  S  1  X    0.000000   0.000000   0.000000   0.005963   0.000000
   12  S  1  Y   -0.000864   0.000000   0.000000   0.000000   0.114767
   13  S  1  Z    0.000000  -0.000421  -0.014281   0.000000   0.000000
   14  S  1 XX    0.000000  -0.000597   0.065144   0.000000   0.000000
   15  S  1 YY    0.000000  -0.001198  -0.043775   0.000000   0.000000
   16  S  1 ZZ    0.000000   0.001795  -0.021369   0.000000   0.000000
   17  S  1 XY    0.000000   0.000000   0.000000   0.000000   0.000000
   18  S  1 XZ    0.000000   0.000000   0.000000   0.099307   0.000000
   19  S  1 YZ    0.001510   0.000000   0.000000   0.000000   0.072332
   20  O  2  S    0.000000  -0.001970  -0.131872   0.153282   0.000000
   21  O  2  S    0.000000   0.002595   0.237571  -0.273875   0.000000
   22  O  2  S    0.000000  -0.000604   0.213747  -0.245328   0.000000
   23  O  2  X    0.000000   0.003711   0.161663  -0.147293   0.000000
   24  O  2  Y    0.001215   0.000000   0.000000   0.000000   0.344279
   25  O  2  Z    0.000000  -0.000560  -0.057252   0.079536   0.000000
   26  O  2  X    0.000000  -0.000760   0.035825  -0.013599   0.000000
   27  O  2  Y   -0.000393   0.000000   0.000000   0.000000   0.164981
   28  O  2  Z    0.000000  -0.000289  -0.005176   0.013829   0.000000
   29  O  2 XX    0.000000   0.001699   0.023974  -0.018143   0.000000
   30  O  2 YY    0.000000  -0.000676  -0.012326   0.014829   0.000000
   31  O  2 ZZ    0.000000  -0.001023  -0.011648   0.003314   0.000000
   32  O  2 XY    0.000850   0.000000   0.000000   0.000000   0.031688
   33  O  2 XZ    0.000000  -0.000600  -0.015982   0.022281   0.000000
   34  O  2 YZ   -0.000541   0.000000   0.000000   0.000000  -0.013993
   35  O  3  S    0.000000  -0.001970  -0.131872  -0.153282   0.000000
   36  O  3  S    0.000000   0.002595   0.237571   0.273875   0.000000
   37  O  3  S    0.000000  -0.000604   0.213747   0.245328   0.000000
   38  O  3  X    0.000000  -0.003711  -0.161663  -0.147293   0.000000
   39  O  3  Y    0.001215   0.000000   0.000000   0.000000   0.344279
   40  O  3  Z    0.000000  -0.000560  -0.057252  -0.079536   0.000000
   41  O  3  X    0.000000   0.000760  -0.035825  -0.013599   0.000000
   42  O  3  Y   -0.000393   0.000000   0.000000   0.000000   0.164981
   43  O  3  Z    0.000000  -0.000289  -0.005176  -0.013829   0.000000
   44  O  3 XX    0.000000   0.001699   0.023974   0.018143   0.000000
   45  O  3 YY    0.000000  -0.000676  -0.012326  -0.014829   0.000000
   46  O  3 ZZ    0.000000  -0.001023  -0.011648  -0.003314   0.000000
   47  O  3 XY   -0.000850   0.000000   0.000000   0.000000  -0.031688
   48  O  3 XZ    0.000000   0.000600   0.015982   0.022281   0.000000
   49  O  3 YZ   -0.000541   0.000000   0.000000   0.000000  -0.013993

                     11         12         13         14         15
                   -0.5566    -0.4856    -0.4405    -0.4147    -0.3760
                     A1         A1         B1         A2         B1  
    1  S  1  S   -0.024620   0.042692   0.000000   0.000000   0.000000
    2  S  1  S    0.075321  -0.117316   0.000000   0.000000   0.000000
    3  S  1  S   -0.145630   0.265961   0.000000   0.000000   0.000000
    4  S  1  S   -0.164240   0.025079   0.000000   0.000000   0.000000
    5  S  1  X    0.000000   0.000000  -0.166620   0.000000   0.022636
    6  S  1  Y    0.000000   0.000000   0.000000   0.000000   0.000000
    7  S  1  Z   -0.185203  -0.049052   0.000000   0.000000   0.000000
    8  S  1  X    0.000000   0.000000   0.304988   0.000000  -0.018569
    9  S  1  Y    0.000000   0.000000   0.000000   0.000000   0.000000
   10  S  1  Z    0.391376   0.085569   0.000000   0.000000   0.000000
   11  S  1  X    0.000000   0.000000  -0.043785   0.000000   0.075396
   12  S  1  Y    0.000000   0.000000   0.000000   0.000000   0.000000
   13  S  1  Z    0.107910  -0.045429   0.000000   0.000000   0.000000
   14  S  1 XX   -0.107609  -0.040599   0.000000   0.000000   0.000000
   15  S  1 YY   -0.008149   0.011929   0.000000   0.000000   0.000000
   16  S  1 ZZ    0.115759   0.028670   0.000000   0.000000   0.000000
   17  S  1 XY    0.000000   0.000000   0.000000  -0.199978   0.000000
   18  S  1 XZ    0.000000   0.000000  -0.006725   0.000000  -0.180929
   19  S  1 YZ    0.000000   0.000000   0.000000   0.000000   0.000000
   20  O  2  S   -0.010191   0.092871  -0.062786   0.000000   0.002880
   21  O  2  S    0.029653  -0.187104   0.129032   0.000000  -0.025922
   22  O  2  S    0.049901  -0.328785   0.271066   0.000000  -0.032397
   23  O  2  X    0.111962   0.344772  -0.280825   0.000000   0.360917
   24  O  2  Y    0.000000   0.000000   0.000000   0.459686   0.000000
   25  O  2  Z    0.318952  -0.068747   0.315954   0.000000   0.314122
   26  O  2  X    0.053184   0.187893  -0.124478   0.000000   0.203690
   27  O  2  Y    0.000000   0.000000   0.000000   0.274063   0.000000
   28  O  2  Z    0.145684  -0.033729   0.175206   0.000000   0.200369
   29  O  2 XX    0.013397   0.020836  -0.010904   0.000000   0.037756
   30  O  2 YY    0.001308  -0.012356   0.014850   0.000000  -0.011489
   31  O  2 ZZ   -0.014705  -0.008480  -0.003946   0.000000  -0.026267
   32  O  2 XY    0.000000   0.000000   0.000000   0.028343   0.000000
   33  O  2 XZ    0.020324  -0.010931   0.028415   0.000000   0.008629
   34  O  2 YZ    0.000000   0.000000   0.000000  -0.010291   0.000000
   35  O  3  S   -0.010191   0.092871   0.062786   0.000000  -0.002880
   36  O  3  S    0.029653  -0.187104  -0.129032   0.000000   0.025922
   37  O  3  S    0.049901  -0.328785  -0.271066   0.000000   0.032397
   38  O  3  X   -0.111962  -0.344772  -0.280825   0.000000   0.360917
   39  O  3  Y    0.000000   0.000000   0.000000  -0.459686   0.000000
   40  O  3  Z    0.318952  -0.068747  -0.315954   0.000000  -0.314122
   41  O  3  X   -0.053184  -0.187893  -0.124478   0.000000   0.203690
   42  O  3  Y    0.000000   0.000000   0.000000  -0.274063   0.000000
   43  O  3  Z    0.145684  -0.033729  -0.175206   0.000000  -0.200369
   44  O  3 XX    0.013397   0.020836   0.010904   0.000000  -0.037756
   45  O  3 YY    0.001308  -0.012356  -0.014850   0.000000   0.011489
   46  O  3 ZZ   -0.014705  -0.008480   0.003946   0.000000   0.026267
   47  O  3 XY    0.000000   0.000000   0.000000   0.028343   0.000000
   48  O  3 XZ   -0.020324   0.010931   0.028415   0.000000   0.008629
   49  O  3 YZ    0.000000   0.000000   0.000000   0.010291   0.000000

                     16         17         18         19         20
                   -0.2198    -0.0111     0.1300     0.1992     0.3423
                     A1         B2         A1         B1         B2  
    1  S  1  S    0.023266   0.000000  -0.000239   0.000000   0.000000
    2  S  1  S   -0.102353   0.000000  -0.090087   0.000000   0.000000
    3  S  1  S    0.120659   0.000000  -0.103006   0.000000   0.000000
    4  S  1  S    1.027420   0.000000   1.753618   0.000000   0.000000
    5  S  1  X    0.000000   0.000000   0.000000  -0.032424   0.000000
    6  S  1  Y    0.000000  -0.179250   0.000000   0.000000  -0.306324
    7  S  1  Z    0.154838   0.000000  -0.059869   0.000000   0.000000
    8  S  1  X    0.000000   0.000000   0.000000   0.164719   0.000000
    9  S  1  Y    0.000000   0.489670   0.000000   0.000000   1.145011
   10  S  1  Z   -0.320204   0.000000   0.228822   0.000000   0.000000
   11  S  1  X    0.000000   0.000000   0.000000   1.915626   0.000000
   12  S  1  Y    0.000000   0.909304   0.000000   0.000000  -1.085528
   13  S  1  Z   -0.185280   0.000000   1.350394   0.000000   0.000000
   14  S  1 XX   -0.212660   0.000000  -0.075090   0.000000   0.000000
   15  S  1 YY    0.101699   0.000000   0.233697   0.000000   0.000000
   16  S  1 ZZ    0.110961   0.000000  -0.158607   0.000000   0.000000
   17  S  1 XY    0.000000   0.000000   0.000000   0.000000   0.000000
   18  S  1 XZ    0.000000   0.000000   0.000000  -0.094599   0.000000
   19  S  1 YZ    0.000000  -0.142086   0.000000   0.000000   0.044771
   20  O  2  S    0.042306   0.000000   0.066164  -0.068287   0.000000
   21  O  2  S   -0.063123   0.000000  -0.084647   0.080566   0.000000
   22  O  2  S   -0.264480   0.000000  -0.961462   1.096064   0.000000
   23  O  2  X   -0.118365   0.000000  -0.147321  -0.087851   0.000000
   24  O  2  Y    0.000000  -0.356330   0.000000   0.000000  -0.037754
   25  O  2  Z    0.297628   0.000000  -0.151701  -0.168935   0.000000
   26  O  2  X   -0.091548   0.000000  -0.379141  -0.045207   0.000000
   27  O  2  Y    0.000000  -0.453419   0.000000   0.000000  -0.051787
   28  O  2  Z    0.245829   0.000000  -0.224109  -0.287620   0.000000
   29  O  2 XX   -0.023185   0.000000  -0.026575   0.014300   0.000000
   30  O  2 YY    0.015537   0.000000   0.027360  -0.010032   0.000000
   31  O  2 ZZ    0.007648   0.000000  -0.000785  -0.004268   0.000000
   32  O  2 XY    0.000000  -0.008927   0.000000   0.000000   0.038966
   33  O  2 XZ    0.024164   0.000000   0.013423  -0.022423   0.000000
   34  O  2 YZ    0.000000  -0.002637   0.000000   0.000000  -0.016666
   35  O  3  S    0.042306   0.000000   0.066164   0.068287   0.000000
   36  O  3  S   -0.063123   0.000000  -0.084647  -0.080566   0.000000
   37  O  3  S   -0.264480   0.000000  -0.961462  -1.096064   0.000000
   38  O  3  X    0.118365   0.000000   0.147321  -0.087851   0.000000
   39  O  3  Y    0.000000  -0.356330   0.000000   0.000000  -0.037754
   40  O  3  Z    0.297628   0.000000  -0.151701   0.168935   0.000000
   41  O  3  X    0.091548   0.000000   0.379141  -0.045207   0.000000
   42  O  3  Y    0.000000  -0.453419   0.000000   0.000000  -0.051787
   43  O  3  Z    0.245829   0.000000  -0.224109   0.287620   0.000000
   44  O  3 XX   -0.023185   0.000000  -0.026575  -0.014300   0.000000
   45  O  3 YY    0.015537   0.000000   0.027360   0.010032   0.000000
   46  O  3 ZZ    0.007648   0.000000  -0.000785   0.004268   0.000000
   47  O  3 XY    0.000000   0.008927   0.000000   0.000000  -0.038966
   48  O  3 XZ   -0.024164   0.000000  -0.013423  -0.022423   0.000000
   49  O  3 YZ    0.000000  -0.002637   0.000000   0.000000  -0.016666

                     21         22         23         24         25
                    0.3907     0.4597     0.5403     0.5989     0.6432
                     A1         A1         B1         B2         A1  
    1  S  1  S   -0.040699  -0.039775   0.000000   0.000000   0.094553
    2  S  1  S   -0.115030   0.051112   0.000000   0.000000   0.515108
    3  S  1  S   -0.581913  -0.365259   0.000000   0.000000   1.679043
    4  S  1  S    0.857357   2.653378   0.000000   0.000000   0.013053
    5  S  1  X    0.000000   0.000000   0.034910   0.000000   0.000000
    6  S  1  Y    0.000000   0.000000   0.000000  -0.013350   0.000000
    7  S  1  Z   -0.287672  -0.015242   0.000000   0.000000  -0.057570
    8  S  1  X    0.000000   0.000000   0.263513   0.000000   0.000000
    9  S  1  Y    0.000000   0.000000   0.000000   0.038762   0.000000
   10  S  1  Z    1.101462   0.230476   0.000000   0.000000   0.418235
   11  S  1  X    0.000000   0.000000   0.482417   0.000000   0.000000
   12  S  1  Y    0.000000   0.000000   0.000000   0.331150   0.000000
   13  S  1  Z   -0.815031   0.251542   0.000000   0.000000   0.272094
   14  S  1 XX   -0.193959   0.612206   0.000000   0.000000  -0.180805
   15  S  1 YY    0.204967  -0.631096   0.000000   0.000000   0.096400
   16  S  1 ZZ   -0.011008   0.018889   0.000000   0.000000   0.084405
   17  S  1 XY    0.000000   0.000000   0.000000   0.000000   0.000000
   18  S  1 XZ    0.000000   0.000000   0.706276   0.000000   0.000000
   19  S  1 YZ    0.000000   0.000000   0.000000   0.986347   0.000000
   20  O  2  S    0.013665   0.023077  -0.017889   0.000000   0.048287
   21  O  2  S   -0.047968   0.008081  -0.034958   0.000000  -0.022040
   22  O  2  S   -0.066120  -1.280660   0.938198   0.000000  -0.571354
   23  O  2  X   -0.046114   0.263689  -0.222626   0.000000   0.238519
   24  O  2  Y    0.000000   0.000000   0.000000  -0.271794   0.000000
   25  O  2  Z   -0.027000  -0.148883   0.238480   0.000000   0.139732
   26  O  2  X   -0.141665  -0.712178   1.000108   0.000000  -1.064541
   27  O  2  Y    0.000000   0.000000   0.000000  -0.160974   0.000000
   28  O  2  Z   -0.088749   0.506907  -0.175711   0.000000   0.037633
   29  O  2 XX    0.014949  -0.023399   0.012373   0.000000   0.006504
   30  O  2 YY    0.014457   0.004155  -0.018439   0.000000   0.008980
   31  O  2 ZZ   -0.029406   0.019245   0.006065   0.000000  -0.015483
   32  O  2 XY    0.000000   0.000000   0.000000   0.034565   0.000000
   33  O  2 XZ    0.029483   0.040687  -0.022909   0.000000  -0.009553
   34  O  2 YZ    0.000000   0.000000   0.000000   0.061364   0.000000
   35  O  3  S    0.013665   0.023077   0.017889   0.000000   0.048287
   36  O  3  S   -0.047968   0.008081   0.034958   0.000000  -0.022040
   37  O  3  S   -0.066120  -1.280660  -0.938198   0.000000  -0.571354
   38  O  3  X    0.046114  -0.263689  -0.222626   0.000000  -0.238519
   39  O  3  Y    0.000000   0.000000   0.000000  -0.271794   0.000000
   40  O  3  Z   -0.027000  -0.148883  -0.238480   0.000000   0.139732
   41  O  3  X    0.141665   0.712178   1.000108   0.000000   1.064541
   42  O  3  Y    0.000000   0.000000   0.000000  -0.160974   0.000000
   43  O  3  Z   -0.088749   0.506907   0.175711   0.000000   0.037633
   44  O  3 XX    0.014949  -0.023399  -0.012373   0.000000   0.006504
   45  O  3 YY    0.014457   0.004155   0.018439   0.000000   0.008980
   46  O  3 ZZ   -0.029406   0.019245  -0.006065   0.000000  -0.015483
   47  O  3 XY    0.000000   0.000000   0.000000  -0.034565   0.000000
   48  O  3 XZ   -0.029483  -0.040687  -0.022909   0.000000   0.009553
   49  O  3 YZ    0.000000   0.000000   0.000000   0.061364   0.000000

                     26         27         28         29         30
                    0.6633     0.6655     0.6695     0.8286     0.8571
                     B1         A2         A1         A1         B2  
    1  S  1  S    0.000000   0.000000   0.009381   0.060229   0.000000
    2  S  1  S    0.000000   0.000000  -0.077605   0.290250   0.000000
    3  S  1  S    0.000000   0.000000   0.013588   1.032125   0.000000
    4  S  1  S    0.000000   0.000000  -0.188663  -0.532817   0.000000
    5  S  1  X   -0.211297   0.000000   0.000000   0.000000   0.000000
    6  S  1  Y    0.000000   0.000000   0.000000   0.000000   0.041674
    7  S  1  Z    0.000000   0.000000  -0.041072  -0.097330   0.000000
    8  S  1  X    1.113932   0.000000   0.000000   0.000000   0.000000
    9  S  1  Y    0.000000   0.000000   0.000000   0.000000  -0.053309
   10  S  1  Z    0.000000   0.000000   0.136932   0.343140   0.000000
   11  S  1  X   -0.281498   0.000000   0.000000   0.000000   0.000000
   12  S  1  Y    0.000000   0.000000   0.000000   0.000000   1.185293
   13  S  1  Z    0.000000   0.000000   0.580868  -0.992779   0.000000
   14  S  1 XX    0.000000   0.000000  -0.399435  -0.024193   0.000000
   15  S  1 YY    0.000000   0.000000  -0.588992   0.068933   0.000000
   16  S  1 ZZ    0.000000   0.000000   0.988427  -0.044741   0.000000
   17  S  1 XY    0.000000   0.723046   0.000000   0.000000   0.000000
   18  S  1 XZ   -0.474887   0.000000   0.000000   0.000000   0.000000
   19  S  1 YZ    0.000000   0.000000   0.000000   0.000000   0.246554
   20  O  2  S   -0.046625   0.000000   0.016627   0.015136   0.000000
   21  O  2  S    0.067519   0.000000  -0.138825  -0.053662   0.000000
   22  O  2  S    0.356963   0.000000   0.113782   0.040454   0.000000
   23  O  2  X   -0.027353   0.000000  -0.196122  -0.338192   0.000000
   24  O  2  Y    0.000000  -0.320472   0.000000   0.000000   0.599724
   25  O  2  Z    0.208390   0.000000  -0.106305  -0.503199   0.000000
   26  O  2  X    0.556576   0.000000  -0.001944  -0.002796   0.000000
   27  O  2  Y    0.000000   0.913313   0.000000   0.000000  -1.178329
   28  O  2  Z   -0.864821   0.000000  -0.544174   0.974054   0.000000
   29  O  2 XX    0.029280   0.000000   0.028013   0.040790   0.000000
   30  O  2 YY    0.007665   0.000000  -0.052318  -0.025334   0.000000
   31  O  2 ZZ   -0.036945   0.000000   0.024305  -0.015456   0.000000
   32  O  2 XY    0.000000  -0.023117   0.000000   0.000000   0.026881
   33  O  2 XZ    0.022084   0.000000   0.047490   0.008483   0.000000
   34  O  2 YZ    0.000000   0.019369   0.000000   0.000000  -0.015918
   35  O  3  S    0.046625   0.000000   0.016627   0.015136   0.000000
   36  O  3  S   -0.067519   0.000000  -0.138825  -0.053662   0.000000
   37  O  3  S   -0.356963   0.000000   0.113782   0.040454   0.000000
   38  O  3  X   -0.027353   0.000000   0.196122   0.338192   0.000000
   39  O  3  Y    0.000000   0.320472   0.000000   0.000000   0.599724
   40  O  3  Z   -0.208390   0.000000  -0.106305  -0.503199   0.000000
   41  O  3  X    0.556576   0.000000   0.001944   0.002796   0.000000
   42  O  3  Y    0.000000  -0.913313   0.000000   0.000000  -1.178329
   43  O  3  Z    0.864821   0.000000  -0.544174   0.974054   0.000000
   44  O  3 XX   -0.029280   0.000000   0.028013   0.040790   0.000000
   45  O  3 YY   -0.007665   0.000000  -0.052318  -0.025334   0.000000
   46  O  3 ZZ    0.036945   0.000000   0.024305  -0.015456   0.000000
   47  O  3 XY    0.000000  -0.023117   0.000000   0.000000  -0.026881
   48  O  3 XZ    0.022084   0.000000  -0.047490  -0.008483   0.000000
   49  O  3 YZ    0.000000  -0.019369   0.000000   0.000000  -0.015918

                     31         32         33         34         35
                    0.8673     0.8961     1.6361     1.6910     1.7610
                     A2         B1         B1         A1         A1  
    1  S  1  S    0.000000   0.000000   0.000000   0.043718   0.032668
    2  S  1  S    0.000000   0.000000   0.000000   0.079354  -0.100889
    3  S  1  S    0.000000   0.000000   0.000000   0.606738   0.279278
    4  S  1  S    0.000000   0.000000   0.000000   2.824108  -1.064164
    5  S  1  X    0.000000   0.166927  -0.170703   0.000000   0.000000
    6  S  1  Y    0.000000   0.000000   0.000000   0.000000   0.000000
    7  S  1  Z    0.000000   0.000000   0.000000  -0.128991  -0.091153
    8  S  1  X    0.000000  -0.819426   1.014556   0.000000   0.000000
    9  S  1  Y    0.000000   0.000000   0.000000   0.000000   0.000000
   10  S  1  Z    0.000000   0.000000   0.000000   0.747110   0.355977
   11  S  1  X    0.000000   0.968992   1.472281   0.000000   0.000000
   12  S  1  Y    0.000000   0.000000   0.000000   0.000000   0.000000
   13  S  1  Z    0.000000   0.000000   0.000000   0.844249  -0.505246
   14  S  1 XX    0.000000   0.000000   0.000000   0.791804   0.690420
   15  S  1 YY    0.000000   0.000000   0.000000  -0.564757  -0.322795
   16  S  1 ZZ    0.000000   0.000000   0.000000  -0.227047  -0.367625
   17  S  1 XY    0.846063   0.000000   0.000000   0.000000   0.000000
   18  S  1 XZ    0.000000   0.187809   0.460829   0.000000   0.000000
   19  S  1 YZ    0.000000   0.000000   0.000000   0.000000   0.000000
   20  O  2  S    0.000000   0.015216  -0.008366   0.015222   0.000847
   21  O  2  S    0.000000   0.007199  -0.906094   0.702605  -1.095536
   22  O  2  S    0.000000  -0.042703   2.499870  -2.674562   1.178984
   23  O  2  X    0.000000   0.196761   0.451942  -0.441603  -0.281744
   24  O  2  Y    0.606198   0.000000   0.000000   0.000000   0.000000
   25  O  2  Z    0.000000   0.568450  -0.074453   0.360297   0.263212
   26  O  2  X    0.000000  -0.890974   0.173851  -0.588721   0.357109
   27  O  2  Y   -0.194063   0.000000   0.000000   0.000000   0.000000
   28  O  2  Z    0.000000  -0.509929  -0.392356  -0.009421  -0.024670
   29  O  2 XX    0.000000   0.040655  -0.122198   0.167354  -0.079233
   30  O  2 YY    0.000000  -0.045451   0.076162  -0.176905  -0.214322
   31  O  2 ZZ    0.000000   0.004796   0.046035   0.009550   0.293555
   32  O  2 XY   -0.017874   0.000000   0.000000   0.000000   0.000000
   33  O  2 XZ    0.000000   0.010653   0.179448  -0.113363  -0.037256
   34  O  2 YZ    0.069417   0.000000   0.000000   0.000000   0.000000
   35  O  3  S    0.000000  -0.015216   0.008366   0.015222   0.000847
   36  O  3  S    0.000000  -0.007199   0.906094   0.702605  -1.095536
   37  O  3  S    0.000000   0.042703  -2.499870  -2.674562   1.178984
   38  O  3  X    0.000000   0.196761   0.451942   0.441603   0.281744
   39  O  3  Y   -0.606198   0.000000   0.000000   0.000000   0.000000
   40  O  3  Z    0.000000  -0.568450   0.074453   0.360297   0.263212
   41  O  3  X    0.000000  -0.890974   0.173851   0.588721  -0.357109
   42  O  3  Y    0.194063   0.000000   0.000000   0.000000   0.000000
   43  O  3  Z    0.000000   0.509929   0.392356  -0.009421  -0.024670
   44  O  3 XX    0.000000  -0.040655   0.122198   0.167354  -0.079233
   45  O  3 YY    0.000000   0.045451  -0.076162  -0.176905  -0.214322
   46  O  3 ZZ    0.000000  -0.004796  -0.046035   0.009550   0.293555
   47  O  3 XY   -0.017874   0.000000   0.000000   0.000000   0.000000
   48  O  3 XZ    0.000000   0.010653   0.179448   0.113363   0.037256
   49  O  3 YZ   -0.069417   0.000000   0.000000   0.000000   0.000000

                     36         37         38         39         40
                    1.8611     1.9860     2.0753     2.1374     2.2037
                     B1         A2         B2         B1         A1  
    1  S  1  S    0.000000   0.000000   0.000000   0.000000  -0.013438
    2  S  1  S    0.000000   0.000000   0.000000   0.000000   0.102203
    3  S  1  S    0.000000   0.000000   0.000000   0.000000  -0.037745
    4  S  1  S    0.000000   0.000000   0.000000   0.000000   0.027848
    5  S  1  X   -0.186196   0.000000   0.000000  -0.151091   0.000000
    6  S  1  Y    0.000000   0.000000  -0.034061   0.000000   0.000000
    7  S  1  Z    0.000000   0.000000   0.000000   0.000000   0.053892
    8  S  1  X    0.694994   0.000000   0.000000   0.446292   0.000000
    9  S  1  Y    0.000000   0.000000   0.236273   0.000000   0.000000
   10  S  1  Z    0.000000   0.000000   0.000000   0.000000  -0.196779
   11  S  1  X   -0.345791   0.000000   0.000000  -0.032217   0.000000
   12  S  1  Y    0.000000   0.000000  -0.004939   0.000000   0.000000
   13  S  1  Z    0.000000   0.000000   0.000000   0.000000   0.027428
   14  S  1 XX    0.000000   0.000000   0.000000   0.000000  -0.421933
   15  S  1 YY    0.000000   0.000000   0.000000   0.000000   0.551835
   16  S  1 ZZ    0.000000   0.000000   0.000000   0.000000  -0.129902
   17  S  1 XY    0.000000   0.059416   0.000000   0.000000   0.000000
   18  S  1 XZ    0.466904   0.000000   0.000000   0.190159   0.000000
   19  S  1 YZ    0.000000   0.000000  -0.199509   0.000000   0.000000
   20  O  2  S   -0.005385   0.000000   0.000000  -0.004318   0.003306
   21  O  2  S    0.748742   0.000000   0.000000   0.517041   0.417400
   22  O  2  S   -0.496635   0.000000   0.000000  -0.362746  -0.185951
   23  O  2  X    0.349290   0.000000   0.000000   0.300052   0.210402
   24  O  2  Y    0.000000  -0.042880   0.055086   0.000000   0.000000
   25  O  2  Z   -0.112585   0.000000   0.000000  -0.000395  -0.115651
   26  O  2  X   -0.083344   0.000000   0.000000  -0.309932  -0.136095
   27  O  2  Y    0.000000   0.082037  -0.083677   0.000000   0.000000
   28  O  2  Z    0.115874   0.000000   0.000000  -0.076824   0.062451
   29  O  2 XX   -0.043225   0.000000   0.000000  -0.503662   0.081335
   30  O  2 YY   -0.396676   0.000000   0.000000   0.450669  -0.545423
   31  O  2 ZZ    0.439901   0.000000   0.000000   0.052993   0.464088
   32  O  2 XY    0.000000   0.496174   0.034068   0.000000   0.000000
   33  O  2 XZ    0.188531   0.000000   0.000000  -0.347476   0.354732
   34  O  2 YZ    0.000000   0.509847   0.719555   0.000000   0.000000
   35  O  3  S    0.005385   0.000000   0.000000   0.004318   0.003306
   36  O  3  S   -0.748742   0.000000   0.000000  -0.517041   0.417400
   37  O  3  S    0.496635   0.000000   0.000000   0.362746  -0.185951
   38  O  3  X    0.349290   0.000000   0.000000   0.300052  -0.210402
   39  O  3  Y    0.000000   0.042880   0.055086   0.000000   0.000000
   40  O  3  Z    0.112585   0.000000   0.000000   0.000395  -0.115651
   41  O  3  X   -0.083344   0.000000   0.000000  -0.309932   0.136095
   42  O  3  Y    0.000000  -0.082037  -0.083677   0.000000   0.000000
   43  O  3  Z   -0.115874   0.000000   0.000000   0.076824   0.062451
   44  O  3 XX    0.043225   0.000000   0.000000   0.503662   0.081335
   45  O  3 YY    0.396676   0.000000   0.000000  -0.450669  -0.545423
   46  O  3 ZZ   -0.439901   0.000000   0.000000  -0.052993   0.464088
   47  O  3 XY    0.000000   0.496174  -0.034068   0.000000   0.000000
   48  O  3 XZ    0.188531   0.000000   0.000000  -0.347476  -0.354732
   49  O  3 YZ    0.000000  -0.509847   0.719555   0.000000   0.000000

                     41         42         43         44         45
                    2.5580     2.5619     2.6992     2.8014     2.8960
                     B2         B1         A2         A1         B1  
    1  S  1  S    0.000000   0.000000   0.000000  -0.090415   0.000000
    2  S  1  S    0.000000   0.000000   0.000000  -0.960246   0.000000
    3  S  1  S    0.000000   0.000000   0.000000  -2.394097   0.000000
    4  S  1  S    0.000000   0.000000   0.000000  -1.735550   0.000000
    5  S  1  X    0.000000  -0.077942   0.000000   0.000000  -0.183020
    6  S  1  Y    0.106255   0.000000   0.000000   0.000000   0.000000
    7  S  1  Z    0.000000   0.000000   0.000000   0.060905   0.000000
    8  S  1  X    0.000000  -0.312939   0.000000   0.000000   2.678454
    9  S  1  Y   -0.721631   0.000000   0.000000   0.000000   0.000000
   10  S  1  Z    0.000000   0.000000   0.000000  -1.206244   0.000000
   11  S  1  X    0.000000  -0.249192   0.000000   0.000000   0.311417
   12  S  1  Y   -0.217414   0.000000   0.000000   0.000000   0.000000
   13  S  1  Z    0.000000   0.000000   0.000000  -0.242175   0.000000
   14  S  1 XX    0.000000   0.000000   0.000000  -0.704872   0.000000
   15  S  1 YY    0.000000   0.000000   0.000000   0.539331   0.000000
   16  S  1 ZZ    0.000000   0.000000   0.000000   0.165541   0.000000
   17  S  1 XY    0.000000   0.000000   1.069700   0.000000   0.000000
   18  S  1 XZ    0.000000   0.926299   0.000000   0.000000   1.143869
   19  S  1 YZ   -0.529589   0.000000   0.000000   0.000000   0.000000
   20  O  2  S    0.000000   0.026849   0.000000  -0.038904  -0.023410
   21  O  2  S    0.000000   0.760037   0.000000  -0.376887   0.055934
   22  O  2  S    0.000000  -0.873601   0.000000   2.395206   2.095452
   23  O  2  X    0.000000   0.229642   0.000000   0.427190   0.647751
   24  O  2  Y    0.001553   0.000000   0.138981   0.000000   0.000000
   25  O  2  Z    0.000000  -0.044939   0.000000  -0.217046  -0.231698
   26  O  2  X    0.000000  -0.268471   0.000000   1.050737   1.015382
   27  O  2  Y    0.399441   0.000000   0.390833   0.000000   0.000000
   28  O  2  Z    0.000000   0.476965   0.000000  -0.452090  -0.342244
   29  O  2 XX    0.000000   0.179145   0.000000   0.752673   0.735982
   30  O  2 YY    0.000000   0.366389   0.000000  -0.516010  -0.329100
   31  O  2 ZZ    0.000000  -0.545534   0.000000  -0.236662  -0.406881
   32  O  2 XY    0.841418   0.000000   0.694453   0.000000   0.000000
   33  O  2 XZ    0.000000   0.527788   0.000000  -0.540453  -0.533376
   34  O  2 YZ   -0.071842   0.000000  -0.591552   0.000000   0.000000
   35  O  3  S    0.000000  -0.026849   0.000000  -0.038904   0.023410
   36  O  3  S    0.000000  -0.760037   0.000000  -0.376887  -0.055934
   37  O  3  S    0.000000   0.873601   0.000000   2.395206  -2.095452
   38  O  3  X    0.000000   0.229642   0.000000  -0.427190   0.647751
   39  O  3  Y    0.001553   0.000000  -0.138981   0.000000   0.000000
   40  O  3  Z    0.000000   0.044939   0.000000  -0.217046   0.231698
   41  O  3  X    0.000000  -0.268471   0.000000  -1.050737   1.015382
   42  O  3  Y    0.399441   0.000000  -0.390833   0.000000   0.000000
   43  O  3  Z    0.000000  -0.476965   0.000000  -0.452090   0.342244
   44  O  3 XX    0.000000  -0.179145   0.000000   0.752673  -0.735982
   45  O  3 YY    0.000000  -0.366389   0.000000  -0.516010   0.329100
   46  O  3 ZZ    0.000000   0.545534   0.000000  -0.236662   0.406881
   47  O  3 XY   -0.841418   0.000000   0.694453   0.000000   0.000000
   48  O  3 XZ    0.000000   0.527788   0.000000   0.540453  -0.533376
   49  O  3 YZ   -0.071842   0.000000   0.591552   0.000000   0.000000

                     46
                    3.0481
                     A1  
    1  S  1  S    0.028917
    2  S  1  S    0.100469
    3  S  1  S    0.501117
    4  S  1  S    0.021131
    5  S  1  X    0.000000
    6  S  1  Y    0.000000
    7  S  1  Z    0.076349
    8  S  1  X    0.000000
    9  S  1  Y    0.000000
   10  S  1  Z   -0.489118
   11  S  1  X    0.000000
   12  S  1  Y    0.000000
   13  S  1  Z   -0.376058
   14  S  1 XX    1.307188
   15  S  1 YY   -0.282890
   16  S  1 ZZ   -1.024298
   17  S  1 XY    0.000000
   18  S  1 XZ    0.000000
   19  S  1 YZ    0.000000
   20  O  2  S   -0.022120
   21  O  2  S   -0.452123
   22  O  2  S    0.000416
   23  O  2  X   -0.173117
   24  O  2  Y    0.000000
   25  O  2  Z    0.296000
   26  O  2  X    0.162265
   27  O  2  Y    0.000000
   28  O  2  Z    0.508612
   29  O  2 XX    0.540936
   30  O  2 YY    0.038290
   31  O  2 ZZ   -0.579226
   32  O  2 XY    0.000000
   33  O  2 XZ    0.690884
   34  O  2 YZ    0.000000
   35  O  3  S   -0.022120
   36  O  3  S   -0.452123
   37  O  3  S    0.000416
   38  O  3  X    0.173117
   39  O  3  Y    0.000000
   40  O  3  Z    0.296000
   41  O  3  X   -0.162265
   42  O  3  Y    0.000000
   43  O  3  Z    0.508612
   44  O  3 XX    0.540936
   45  O  3 YY    0.038290
   46  O  3 ZZ   -0.579226
   47  O  3 XY    0.000000
   48  O  3 XZ   -0.690884
   49  O  3 YZ    0.000000
 ...... END OF RHF CALCULATION ......
 STEP CPU TIME =     4.78 TOTAL CPU TIME =        5.0 (    0.1 MIN)
 TOTAL WALL CLOCK TIME=        5.0 SECONDS, CPU UTILIZATION IS  99.80%

     ---------------------------------------------------------------------
     PROPERTIES FOR THE PBE      DFT FUNCTIONAL (RHF  TYPE) DENSITY MATRIX
     ---------------------------------------------------------------------

          -----------------
          ENERGY COMPONENTS
          -----------------

         WAVEFUNCTION NORMALIZATION =       1.0000000000

                ONE ELECTRON ENERGY =   -1032.0984722871
                TWO ELECTRON ENERGY =     344.4490496721
           NUCLEAR REPULSION ENERGY =     140.1396505003
                                      ------------------
                       TOTAL ENERGY =    -547.5097721147

 ELECTRON-ELECTRON POTENTIAL ENERGY =     344.4490496721
  NUCLEUS-ELECTRON POTENTIAL ENERGY =   -1585.1949362871
   NUCLEUS-NUCLEUS POTENTIAL ENERGY =     140.1396505003
                                      ------------------
             TOTAL POTENTIAL ENERGY =   -1100.6062361147
               TOTAL KINETIC ENERGY =     553.0964640000
                 VIRIAL RATIO (V/T) =       1.9898992450

          ---------------------------------------
          MULLIKEN AND LOWDIN POPULATION ANALYSES
          ---------------------------------------

     ATOMIC MULLIKEN POPULATION IN EACH MOLECULAR ORBITAL

                      1          2          3          4          5

                  2.000000   2.000000   2.000000   2.000000   2.000000

    1             2.000109  -0.000855   0.001236   2.003201   1.994303
    2            -0.000055   1.000427   0.999382  -0.001601   0.002849
    3            -0.000055   1.000427   0.999382  -0.001601   0.002849

                      6          7          8          9         10

                  2.000000   2.000000   2.000000   2.000000   2.000000

    1             1.999710   1.998653   0.709166   0.641346   0.839443
    2             0.000145   0.000673   0.645417   0.679327   0.580279
    3             0.000145   0.000673   0.645417   0.679327   0.580279

                     11         12         13         14         15

                  2.000000   2.000000   2.000000   2.000000   2.000000

    1             0.883491   0.197379   0.183971   0.270930   0.239868
    2             0.558255   0.901311   0.908015   0.864535   0.880066
    3             0.558255   0.901311   0.908015   0.864535   0.880066

                     16

                  2.000000

    1             1.660826
    2             0.169587
    3             0.169587

               ----- POPULATIONS IN EACH AO -----
                             MULLIKEN      LOWDIN
              1  S  1  S      2.00027     1.99591
              2  S  1  S      2.01222     1.88178
              3  S  1  S      0.79695     0.47362
              4  S  1  S      1.15369     0.63834
              5  S  1  X      1.99678     1.95673
              6  S  1  Y      1.99546     1.95550
              7  S  1  Z      1.99688     1.96559
              8  S  1  X      0.71272     0.61020
              9  S  1  Y      0.65300     0.57144
             10  S  1  Z      0.84877     0.80212
             11  S  1  X      0.08392     0.25290
             12  S  1  Y      0.15732     0.24210
             13  S  1  Z      0.23078     0.35151
             14  S  1 XX      0.17076     0.41902
             15  S  1 YY      0.24375     0.24886
             16  S  1 ZZ      0.27093     0.34903
             17  S  1 XY      0.26521     0.35509
             18  S  1 XZ      0.03337     0.34581
             19  S  1 YZ      0.00000     0.03434
             20  O  2  S      1.99843     1.97679
             21  O  2  S      0.79306     0.59664
             22  O  2  S      0.82219     0.47116
             23  O  2  X      1.13612     1.09533
             24  O  2  Y      0.94988     0.88365
             25  O  2  Z      1.11924     1.07750
             26  O  2  X      0.37871     0.49714
             27  O  2  Y      0.47770     0.51373
             28  O  2  Z      0.46816     0.54216
             29  O  2 XX      0.00777     0.21681
             30  O  2 YY      0.00903     0.17340
             31  O  2 ZZ      0.01459     0.17596
             32  O  2 XY      0.01094     0.01982
             33  O  2 XZ      0.00279     0.03141
             34  O  2 YZ      0.00000     0.00357
             35  O  3  S      1.99843     1.97679
             36  O  3  S      0.79306     0.59664
             37  O  3  S      0.82219     0.47116
             38  O  3  X      1.13612     1.09533
             39  O  3  Y      0.94988     0.88365
             40  O  3  Z      1.11924     1.07750
             41  O  3  X      0.37871     0.49714
             42  O  3  Y      0.47770     0.51373
             43  O  3  Z      0.46816     0.54216
             44  O  3 XX      0.00777     0.21681
             45  O  3 YY      0.00903     0.17340
             46  O  3 ZZ      0.01459     0.17596
             47  O  3 XY      0.01094     0.01982
             48  O  3 XZ      0.00279     0.03141
             49  O  3 YZ      0.00000     0.00357

          ----- MULLIKEN ATOMIC OVERLAP POPULATIONS -----
          (OFF-DIAGONAL ELEMENTS NEED TO BE MULTIPLIED BY 2)

             1           2           3

    1   15.1209071
    2    0.2509351   7.9427642
    3    0.2509351  -0.0050880   7.9427642

          TOTAL MULLIKEN AND LOWDIN ATOMIC POPULATIONS
       ATOM         MULL.POP.    CHARGE          LOW.POP.     CHARGE
    1 S            15.622777    0.377223        15.449876    0.550124
    2 O             8.188611   -0.188611         8.275062   -0.275062
    3 O             8.188611   -0.188611         8.275062   -0.275062

          MULLIKEN SPHERICAL HARMONIC POPULATIONS
       ATOM           S       P       D      F      G      H      I    TOTAL
    1 S             5.96    8.68    0.98   0.00   0.00   0.00   0.00   15.62
    2 O             3.61    4.53    0.05   0.00   0.00   0.00   0.00    8.19
    3 O             3.61    4.53    0.05   0.00   0.00   0.00   0.00    8.19

          -------------------------------
          BOND ORDER AND VALENCE ANALYSIS     BOND ORDER THRESHOLD=0.050
          -------------------------------

                   BOND                       BOND                       BOND
  ATOM PAIR DIST  ORDER      ATOM PAIR DIST  ORDER      ATOM PAIR DIST  ORDER
    1   2  1.100  2.124        1   3  1.100  2.124

                       TOTAL       BONDED        FREE
      ATOM            VALENCE     VALENCE     VALENCE
    1 S                 4.249       4.249       0.000
    2 O                 2.162       2.162       0.000
    3 O                 2.162       2.162       0.000

          ---------------------
          ELECTROSTATIC MOMENTS
          ---------------------

 POINT   1           X           Y           Z (BOHR)    CHARGE
                 0.000000    0.000000    0.000000        0.00 (A.U.)
         DX          DY          DZ         /D/  (DEBYE)
     0.000000    0.000000    0.032552    0.032552
 ...... END OF PROPERTY EVALUATION ......
 STEP CPU TIME =     0.00 TOTAL CPU TIME =        5.0 (    0.1 MIN)
 TOTAL WALL CLOCK TIME=        5.0 SECONDS, CPU UTILIZATION IS  99.80%
               580000  WORDS OF DYNAMIC MEMORY USED
 EXECUTION OF GAMESS TERMINATED NORMALLY Thu Feb 26 00:11:47 2015
 DDI: 263624 bytes (0.3 MB / 0 MWords) used by master data server.

 ----------------------------------------
 CPU timing information for all processes
 ========================================
 0: 4.959 + 0.85 = 5.45
 ----------------------------------------
 ddikick.x: exited gracefully.
----- accounting info -----
Files used on the master node dftfe.crc.nd.edu were:
-rw-r--r-- 1 pmehta1 campus   37475 Feb 26 00:11 /tmp/gamess.dat
-rw-r--r-- 1 pmehta1 campus     142 Feb 26 00:11 /tmp/gamess.F05
-rw-r--r-- 1 pmehta1 campus 2340312 Feb 26 00:11 /tmp/gamess.F08
-rw-r--r-- 1 pmehta1 campus 1220440 Feb 26 00:11 /tmp/gamess.F10
Thu Feb 26 00:11:50 EST 2015
0.240u 0.179s 0:08.48 4.8%	0+0k 0+112io 0pf+0w
