----- GAMESS execution script 'rungms' -----
This job is running on host dftfe.crc.nd.edu
under operating system Linux at Thu Feb 26 00:22:08 EST 2015
Available scratch disk space (Kbyte units) at beginning of the job is
Filesystem     1K-blocks     Used Available Use% Mounted on
/dev/sda2      147771864 22817992 117447440  17% /
GAMESS temporary binary files will be written to /tmp
GAMESS supplementary output files will be written to /tmp
Copying input file gamess.inp to your run's scratch directory...

 Distributed Data Interface kickoff program.
 Initiating 1 compute processes on 1 nodes to run the following command:
 /opt/crc/gamess/2012R1/gamess/gamess.00.x gamess 

          ******************************************************
          *         GAMESS VERSION =  1 MAY 2012 (R1)          *
          *             FROM IOWA STATE UNIVERSITY             *
          * M.W.SCHMIDT, K.K.BALDRIDGE, J.A.BOATZ, S.T.ELBERT, *
          *   M.S.GORDON, J.H.JENSEN, S.KOSEKI, N.MATSUNAGA,   *
          *          K.A.NGUYEN, S.J.SU, T.L.WINDUS,           *
          *       TOGETHER WITH M.DUPUIS, J.A.MONTGOMERY       *
          *         J.COMPUT.CHEM.  14, 1347-1363(1993)        *
          **************** 64 BIT LINUX VERSION ****************

  SINCE 1993, STUDENTS AND POSTDOCS WORKING AT IOWA STATE UNIVERSITY
  AND ALSO IN THEIR VARIOUS JOBS AFTER LEAVING ISU HAVE MADE IMPORTANT
  CONTRIBUTIONS TO THE CODE:
     IVANA ADAMOVIC, CHRISTINE AIKENS, YURI ALEXEEV, POOJA ARORA,
     ANDREY ASADCHEV, ROB BELL, PRADIPTA BANDYOPADHYAY, JONATHAN BENTZ,
     BRETT BODE, GALINA CHABAN, WEI CHEN, CHEOL HO CHOI, PAUL DAY,
     ALBERT DEFUSCO, TIM DUDLEY, DMITRI FEDOROV, GRAHAM FLETCHER,
     MARK FREITAG, KURT GLAESEMANN, DAN KEMP, GRANT MERRILL,
     NORIYUKI MINEZAWA, JONATHAN MULLIN, TAKESHI NAGATA,
     SEAN NEDD, HEATHER NETZLOFF, BOSILJKA NJEGIC, RYAN OLSON, MIKE PAK,
     JIM SHOEMAKER, LYUDMILA SLIPCHENKO, SAROM SOK, JIE SONG,
     TETSUYA TAKETSUGU, SIMON WEBB, SOOHAENG YOO, FEDERICO ZAHARIEV

  ADDITIONAL CODE HAS BEEN PROVIDED BY COLLABORATORS IN OTHER GROUPS:
     IOWA STATE UNIVERSITY:
          JOE IVANIC, LAIMUTIS BYTAUTAS, KLAUS RUEDENBERG
     UNIVERSITY OF TOKYO: KIMIHIKO HIRAO, TAKAHITO NAKAJIMA,
          TAKAO TSUNEDA, MUNEAKI KAMIYA, SUSUMU YANAGISAWA,
          KIYOSHI YAGI, MAHITO CHIBA, SEIKEN TOKURA, NAOAKI KAWAKAMI
     UNIVERSITY OF AARHUS: FRANK JENSEN
     UNIVERSITY OF IOWA: VISVALDAS KAIRYS, HUI LI
     NATIONAL INST. OF STANDARDS AND TECHNOLOGY: WALT STEVENS, DAVID GARMER
     UNIVERSITY OF PISA: BENEDETTA MENNUCCI, JACOPO TOMASI
     UNIVERSITY OF MEMPHIS: HENRY KURTZ, PRAKASHAN KORAMBATH
     UNIVERSITY OF ALBERTA: TOBY ZENG, MARIUSZ KLOBUKOWSKI
     UNIVERSITY OF NEW ENGLAND: MARK SPACKMAN
     MIE UNIVERSITY: HIROAKI UMEDA
     MICHIGAN STATE UNIVERSITY:
          KAROL KOWALSKI, MARTA WLOCH, JEFFREY GOUR, JESSE LUTZ, PIOTR PIECUCH
     UNIVERSITY OF SILESIA: MONIKA MUSIAL, STANISLAW KUCHARSKI
     FACULTES UNIVERSITAIRES NOTRE-DAME DE LA PAIX:
          OLIVIER QUINET, BENOIT CHAMPAGNE
     UNIVERSITY OF CALIFORNIA - SANTA BARBARA: BERNARD KIRTMAN
     INSTITUTE FOR MOLECULAR SCIENCE:
          KAZUYA ISHIMURA, MICHIO KATOUDA, AND SHIGERU NAGASE
     UNIVERSITY OF NOTRE DAME: DAN CHIPMAN
     KYUSHU UNIVERSITY:
          HARUYUKI NAKANO,
          FENG LONG GU, JACEK KORCHOWIEC, MARCIN MAKOWSKI, AND YURIKO AOKI,
          HIROTOSHI MORI AND EISAKU MIYOSHI
     PENNSYLVANIA STATE UNIVERSITY:
          TZVETELIN IORDANOV, CHET SWALINA, JONATHAN SKONE,
          SHARON HAMMES-SCHIFFER
     WASEDA UNIVERSITY:
          MASATO KOBAYASHI, TOMOKO AKAMA, TSUGUKI TOUMA,
          TAKESHI YOSHIKAWA, YASUHIRO IKABATA, HIROMI NAKAI
     UNIVERSITY OF NEBRASKA:
          PEIFENG SU, DEJUN SI, NANDUN THELLAMUREGE, YALI WANG, HUI LI
     UNIVERSITY OF ZURICH:
          ROBERTO PEVERATI, KIM BALDRIDGE
     N. COPERNICUS UNIVERSITY AND JACKSON STATE UNIVERSITY:
          MARIA BARYSZ

 EXECUTION OF GAMESS BEGUN Thu Feb 26 00:22:09 2015

            ECHO OF THE FIRST FEW INPUT CARDS -
 INPUT CARD> $BASIS GBASIS=PC1 $END                                                         
 INPUT CARD> $CONTRL COORD=ZMT ISPHER=1 RUNTYP=ENERGY DFTTYP=PBE $END                       
 INPUT CARD>                                                                                
 INPUT CARD> $DATA                                                                          
 INPUT CARD>Title                                                                           
 INPUT CARD>Cnv 2                                                                           
 INPUT CARD>                                                                                
 INPUT CARD>S                                                                               
 INPUT CARD>O 1 1.90                                                                        
 INPUT CARD>O 1 1.90 2 150.0                                                                
 INPUT CARD> $END                                                                           
    1000000 WORDS OF MEMORY AVAILABLE

     BASIS OPTIONS
     -------------
     GBASIS=PC1          IGAUSS=       0      POLAR=NONE    
     NDFUNC=       0     NFFUNC=       0     DIFFSP=       F
     NPFUNC=       0      DIFFS=       F     BASNAM=        


     RUN TITLE
     ---------
 Title                                                                           

 THE POINT GROUP OF THE MOLECULE IS CNV     
 THE ORDER OF THE PRINCIPAL AXIS IS     2

 YOUR FULLY SUBSTITUTED Z-MATRIX IS
 S   
 O      1   1.9000000
 O      1   1.9000000  2  150.0000

 THE MOMENTS OF INERTIA ARE (AMU-ANGSTROM**2)
 IXX=     3.867   IYY=   107.747   IZZ=   111.614

 ATOM      ATOMIC                      COORDINATES (BOHR)
           CHARGE         X                   Y                   Z
 S          16.0     0.0000000000        0.0000000000       -0.4647711643
 O           8.0    -3.4681367587        0.0000000000        0.4645132795
 O           8.0     3.4681367587        0.0000000000        0.4645132795

          INTERNUCLEAR DISTANCES (ANGS.)
          ------------------------------

                1 S          2 O          3 O     

   1 S       0.0000000    1.9000000 *  1.9000000 *
   2 O       1.9000000 *  0.0000000    3.6705181  
   3 O       1.9000000 *  3.6705181    0.0000000  

  * ... LESS THAN  3.000


     ATOMIC BASIS SET
     ----------------
 THE CONTRACTED PRIMITIVE FUNCTIONS HAVE BEEN UNNORMALIZED
 THE CONTRACTED BASIS FUNCTIONS ARE NOW NORMALIZED TO UNITY

  SHELL TYPE  PRIMITIVE        EXPONENT          CONTRACTION COEFFICIENT(S)

 S         

      1   S       1         55510.0000000    0.000587229760
      1   S       2          8326.7000000    0.004532413947
      1   S       3          1895.6000000    0.023265261648
      1   S       4           536.7700000    0.089696133027
      1   S       5           174.6700000    0.254098332277
      1   S       6            62.5780000    0.438665087637
      1   S       7            23.5730000    0.314547135094
      1   S       8             5.8908000    0.032727897102

      2   S       9          8326.7000000   -0.000019755715
      2   S      10          1895.6000000   -0.000043822381
      2   S      11           536.7700000   -0.001730264906
      2   S      12           174.6700000   -0.009381263460
      2   S      13            62.5780000   -0.064050766303
      2   S      14            23.5730000   -0.082478179196
      2   S      15             5.8908000    0.478342956889
      2   S      16             2.1852000    0.626896670208

      3   S      17          1895.6000000    0.000016227260
      3   S      18           536.7700000    0.000191135619
      3   S      19           174.6700000    0.001952069674
      3   S      20            62.5780000    0.010578701087
      3   S      21            23.5730000    0.022164934551
      3   S      22             5.8908000   -0.184968323118
      3   S      23             2.1852000   -0.480920750976
      3   S      24             0.4528200    1.243822243872

      4   S      25             0.1620200    1.000000000000

      5   P      26           395.4500000    0.004642761329
      5   P      27            92.8340000    0.036023396489
      5   P      28            29.2660000    0.149058869978
      5   P      29            10.5950000    0.360033266263
      5   P      30             4.0272000    0.455756476221
      5   P      31             1.5484000    0.206167664178

      6   P      32            92.8340000    0.000169901442
      6   P      33            29.2660000   -0.002541839934
      6   P      34            10.5950000   -0.007867614595
      6   P      35             4.0272000   -0.037231009184
      6   P      36             1.5484000    0.161417246830
      6   P      37             0.4613400    0.902230419976

      7   P      38             0.1313100    1.000000000000

      8   D      39             0.5500000    1.000000000000

 O         

     15   S      40          2306.7000000    0.005424388755
     15   S      41           347.1500000    0.040474749465
     15   S      42            78.8900000    0.180219634554
     15   S      43            21.8760000    0.462370311787
     15   S      44             6.6646000    0.454888396263

     16   S      45           347.1500000   -0.000655003786
     16   S      46            78.8900000   -0.005362052952
     16   S      47            21.8760000   -0.074902158894
     16   S      48             6.6646000   -0.181442579655
     16   S      49             1.0669000    1.102006874042

     17   S      50             0.3070000    1.000000000000

     18   P      51            17.0220000    0.068979967443
     18   P      52             3.6838000    0.351985516325
     18   P      53             0.9923400    0.724036547822

     19   P      54             0.2448700    1.000000000000

     20   D      55             1.0000000    1.000000000000

 TOTAL NUMBER OF BASIS SET SHELLS             =   20
 NUMBER OF CARTESIAN GAUSSIAN BASIS FUNCTIONS =   49
 NOTE: THIS RUN WILL RESTRICT THE MO VARIATION SPACE TO SPHERICAL HARMONICS.
 THE NUMBER OF ORBITALS KEPT IN THE VARIATIONAL SPACE WILL BE PRINTED LATER.
 NUMBER OF ELECTRONS                          =   32
 CHARGE OF MOLECULE                           =    0
 SPIN MULTIPLICITY                            =    1
 NUMBER OF OCCUPIED ORBITALS (ALPHA)          =   16
 NUMBER OF OCCUPIED ORBITALS (BETA )          =   16
 TOTAL NUMBER OF ATOMS                        =    3
 THE NUCLEAR REPULSION ENERGY IS       80.5265279204

     LEBEDEV GRID-BASED DFT OPTIONS
     ------------------------------
     DFTTYP=PBE     
     NRAD  =      96     NLEB  =     302
     NRAD0 =      24     NLEB0 =     110
     SWOFF =    5.00E-03 (PURE SCF -> DFT)
     SWITCH=    3.00E-04 (COARSE -> TIGHT GRID)
     THRESH=    0.00E+00 GTHRE=    1.00E+00

 GRIMME'S EMPIRICAL DISPERSION CORRECTION= F

     $CONTRL OPTIONS
     ---------------
 SCFTYP=RHF          RUNTYP=ENERGY       EXETYP=RUN     
 MPLEVL=       0     CITYP =NONE         CCTYP =NONE         VBTYP =NONE    
 DFTTYP=PBE          TDDFT =NONE    
 MULT  =       1     ICHARG=       0     NZVAR =       0     COORD =ZMT     
 PP    =NONE         RELWFN=NONE         LOCAL =NONE         NUMGRD=       F
 ISPHER=       1     NOSYM =       0     MAXIT =      30     UNITS =ANGS    
 PLTORB=       F     MOLPLT=       F     AIMPAC=       F     FRIEND=        
 NPRINT=       7     IREST =       0     GEOM  =INPUT   
 NORMF =       0     NORMP =       0     ITOL  =      20     ICUT  =       9
 INTTYP=BEST         GRDTYP=BEST         QMTTOL= 1.0E-06

     $SYSTEM OPTIONS
     ---------------
  REPLICATED MEMORY=     1000000 WORDS (ON EVERY NODE).
 DISTRIBUTED MEMDDI=           0 MILLION WORDS IN AGGREGATE,
 MEMDDI DISTRIBUTED OVER   1 PROCESSORS IS           0 WORDS/PROCESSOR.
 TOTAL MEMORY REQUESTED ON EACH PROCESSOR=     1000000 WORDS.
 TIMLIM=      525600.00 MINUTES, OR     365.0 DAYS.
 PARALL= F  BALTYP=  DLB     KDIAG=    0  COREFL= F
 MXSEQ2=     300 MXSEQ3=     150

          ----------------
          PROPERTIES INPUT
          ----------------

     MOMENTS            FIELD           POTENTIAL          DENSITY
 IEMOM =       1   IEFLD =       0   IEPOT =       0   IEDEN =       0
 WHERE =COMASS     WHERE =NUCLEI     WHERE =NUCLEI     WHERE =NUCLEI  
 OUTPUT=BOTH       OUTPUT=BOTH       OUTPUT=BOTH       OUTPUT=BOTH    
 IEMINT=       0   IEFINT=       0                     IEDINT=       0
                                                       MORB  =       0
          EXTRAPOLATION IN EFFECT
          DIIS IN EFFECT
 ORBITAL PRINTING OPTION: NPREO=     1    49     2     1

     -------------------------------
     INTEGRAL TRANSFORMATION OPTIONS
     -------------------------------
     NWORD  =            0
     CUTOFF = 1.0E-09     MPTRAN =       0
     DIRTRF =       F     AOINTS =DUP     

          ----------------------
          INTEGRAL INPUT OPTIONS
          ----------------------
 NOPK  =       1 NORDER=       0 SCHWRZ=       F

   --- ENCODED Z MATRIX ---
 COORD  TYPE   I   J   K   L   M   N
    1      1    3   1
    2      1    2   1
    3      2    2   1   3

 THE DETERMINANT OF THE G MATRIX IS 10**(    -4)

 THE DETERMINANT OF THE G MATRIX IS 10**(    -4)
 * * * WARNING * * *
 YOUR B MATRIX HAS A SMALL DETERMINANT.
 THIS SUGGESTS YOU MAY HAVE BADLY CHOSEN COORDINATES.

     ------------------------------------------
     THE POINT GROUP IS CNV, NAXIS= 2, ORDER= 4
     ------------------------------------------

 -- VARIATIONAL SPACE WILL BE RESTRICTED TO PURE SPHERICAL HARMONICS ONLY --
 AFTER EXCLUDING CONTAMINANT COMBINATIONS FROM THE CARTESIAN GAUSSIAN BASIS
 SET, THE NUMBER OF SPHERICAL HARMONICS KEPT IN THE VARIATION SPACE IS   46

     DIMENSIONS OF THE SYMMETRY SUBSPACES ARE
 A1  =   19     A2  =    5     B1  =   14     B2  =    8

 ..... DONE SETTING UP THE RUN .....
 STEP CPU TIME =     0.01 TOTAL CPU TIME =        0.0 (    0.0 MIN)
 TOTAL WALL CLOCK TIME=        0.0 SECONDS, CPU UTILIZATION IS  50.00%

          ********************
          1 ELECTRON INTEGRALS
          ********************
 ...... END OF ONE-ELECTRON INTEGRALS ......
 STEP CPU TIME =     0.00 TOTAL CPU TIME =        0.0 (    0.0 MIN)
 TOTAL WALL CLOCK TIME=        0.0 SECONDS, CPU UTILIZATION IS  50.00%

          -------------
          GUESS OPTIONS
          -------------
          GUESS =HUCKEL            NORB  =       0          NORDER=       0
          MIX   =       F          PRTMO =       F          PUNMO =       F
          TOLZ  = 1.0E-08          TOLE  = 1.0E-05
          SYMDEN=       F          PURIFY=       F

 INITIAL GUESS ORBITALS GENERATED BY HUCKEL   ROUTINE.
 HUCKEL GUESS REQUIRES     21583 WORDS.

 STATISTICS FOR GENERATION OF SYMMETRY ORBITAL -Q- MATRIX
 NUMBER OF CARTESIAN ATOMIC ORBITALS=         49
 NUMBER OF SPHERICAL CONTAMINANTS DROPPED=     3
 NUMBER OF LINEARLY DEPENDENT MOS DROPPED=     0
 TOTAL NUMBER OF MOS IN VARIATION SPACE=      46

 SYMMETRIES FOR INITIAL GUESS ORBITALS FOLLOW.   BOTH SET(S).
    16 ORBITALS ARE OCCUPIED (    7 CORE ORBITALS).
     8=?B1      9=?A1     10=?A1     11=B1      12=B2      13=A1      14=A2  
    15=B1      16=A1      17=B2      18=A1      19=B1      20=A1      21=A1  
    22=A1      23=A1      24=A1      25=A1      26=A1  
 ...... END OF INITIAL ORBITAL SELECTION ......
 STEP CPU TIME =     0.01 TOTAL CPU TIME =        0.0 (    0.0 MIN)
 TOTAL WALL CLOCK TIME=        0.0 SECONDS, CPU UTILIZATION IS 100.00%

                    ----------------------
                    AO INTEGRAL TECHNOLOGY
                    ----------------------
     S,P,L SHELL ROTATED AXIS INTEGRALS, REPROGRAMMED BY
        KAZUYA ISHIMURA (IMS) AND JOSE SIERRA (SYNSTAR).
     S,P,D,L SHELL ROTATED AXIS INTEGRALS PROGRAMMED BY
        KAZUYA ISHIMURA (INSTITUTE FOR MOLECULAR SCIENCE).
     S,P,D,F,G SHELL TO TOTAL QUARTET ANGULAR MOMENTUM SUM 5,
        ERIC PROGRAM BY GRAHAM FLETCHER (ELORET AND NASA ADVANCED
        SUPERCOMPUTING DIVISION, AMES RESEARCH CENTER).
     S,P,D,F,G,L SHELL GENERAL RYS QUADRATURE PROGRAMMED BY
        MICHEL DUPUIS (PACIFIC NORTHWEST NATIONAL LABORATORY).

          --------------------
          2 ELECTRON INTEGRALS
          --------------------

 THE -PK- OPTION IS OFF, THE INTEGRALS ARE NOT IN SUPERMATRIX FORM.
 STORING   15000 INTEGRALS/RECORD ON DISK, USING 12 BYTES/INTEGRAL.
 TWO ELECTRON INTEGRAL EVALUATION REQUIRES   90606 WORDS OF MEMORY.
 II,JST,KST,LST =  1  1  1  1 NREC =         1 INTLOC =    1
 II,JST,KST,LST =  2  1  1  1 NREC =         1 INTLOC =    2
 II,JST,KST,LST =  3  1  1  1 NREC =         1 INTLOC =    7
 II,JST,KST,LST =  4  1  1  1 NREC =         1 INTLOC =   22
 II,JST,KST,LST =  5  1  1  1 NREC =         1 INTLOC =   56
 II,JST,KST,LST =  6  1  1  1 NREC =         1 INTLOC =  125
 II,JST,KST,LST =  7  1  1  1 NREC =         1 INTLOC =  329
 II,JST,KST,LST =  8  1  1  1 NREC =         1 INTLOC =  776
 II,JST,KST,LST =  9  1  1  1 NREC =         1 INTLOC = 2864
 II,JST,KST,LST = 10  1  1  1 NREC =         1 INTLOC = 2864
 II,JST,KST,LST = 11  1  1  1 NREC =         1 INTLOC = 2864
 II,JST,KST,LST = 12  1  1  1 NREC =         1 INTLOC = 2864
 II,JST,KST,LST = 13  1  1  1 NREC =         1 INTLOC = 2864
 II,JST,KST,LST = 14  1  1  1 NREC =         1 INTLOC = 2864
 II,JST,KST,LST = 15  1  1  1 NREC =         1 INTLOC = 2864
 II,JST,KST,LST = 16  1  1  1 NREC =         1 INTLOC = 4748
 II,JST,KST,LST = 17  1  1  1 NREC =         1 INTLOC = 7717
 II,JST,KST,LST = 18  1  1  1 NREC =         1 INTLOC =11969
 II,JST,KST,LST = 19  1  1  1 NREC =         2 INTLOC =12084
 II,JST,KST,LST = 20  1  1  1 NREC =         4 INTLOC =11366
 TOTAL NUMBER OF NONZERO TWO-ELECTRON INTEGRALS =              145893
         10 INTEGRAL RECORDS WERE STORED ON DISK FILE  8.
  ...... END OF TWO-ELECTRON INTEGRALS .....
 STEP CPU TIME =     0.15 TOTAL CPU TIME =        0.2 (    0.0 MIN)
 TOTAL WALL CLOCK TIME=        0.2 SECONDS, CPU UTILIZATION IS 100.00%

          --------------------------
               R-PBE SCF CALCULATION
          --------------------------

     NUCLEAR ENERGY =        80.5265279204
     MAXIT =   30     NPUNCH=    2
     EXTRAP=T  DAMP=F  SHIFT=F  RSTRCT=F  DIIS=T  DEM=F  SOSCF=F
         DENSITY MATRIX CONVERGENCE THRESHOLD=  1.00E-05
     COARSE -> FINE DFT GRID SWITCH THRESHOLD=  3.00E-04 (SWITCH IN $DFT)
                   HF -> DFT SWITCH THRESHOLD=  5.00E-03 (SWOFF IN $DFT)
     MEMORY REQUIRED FOR RHF ITERS=    183108 WORDS.

 DFT CODE IS SWITCHING FROM THE FINE GRID NRAD= 96,  NLEB=  302
                      TO THE COARSE GRID NRAD0= 24, NLEB0=  110

     EXCHANGE FUNCTIONAL   =PBE       
     CORRELATION FUNCTIONAL=PBE       
     DFT THRESHOLD         =.460E-07
     GRID CHANGE THRESHOLD =.300E-03
 FOR AN EULER-MACLAURIN QUADRATURE USING  96 RADIAL POINTS:
 SMALLEST GAUSSIAN PRIMITIVE EXPONENT=        0.1313100000 OF TYPE -P-
 ON ATOM NUMBER   1 HAS RADIAL NORMALIZATION=  1.000000
  LARGEST GAUSSIAN PRIMITIVE EXPONENT=    55510.0000000000 OF TYPE -S-
 ON ATOM NUMBER   1 HAS RADIAL NORMALIZATION=  0.999999
 DFT IS SWITCHED OFF, PERFORMING PURE SCF UNTIL SWOFF THRESHOLD IS REACHED.

 ITER EX DEM     TOTAL ENERGY        E CHANGE  DENSITY CHANGE    DIIS ERROR
   1  0  0     -545.6519554701  -545.6519554701   0.715542361   0.921712479
   2  1  0     -545.5568749454     0.0950805246   0.983588293   0.736773151
   3  2  0     -544.7575038545     0.7993710909   1.265911472   0.768122484
   4  3  0     -542.4185074014     2.3389964531   1.347546527   1.540815706
   5  0  0     -542.1758142271     0.2426931743   0.775353682   1.081476538
          * * *   INITIATING DIIS PROCEDURE   * * *
   6  1  0     -546.5650956971    -4.3892814700   0.523387064   0.220000525
   7  2  0     -546.3599453253     0.2051503717   0.293524639   0.408569414
   8  3  0     -546.7886775026    -0.4287321773   0.042370078   0.039208412
   9  4  0     -546.8023493546    -0.0136718519   0.054496413   0.022525423
  10  5  0     -546.8108099741    -0.0084606195   0.042463908   0.014194250
  11  6  0     -546.8156367185    -0.0048267444   0.063026613   0.013031855
  12  7  0     -546.8208925644    -0.0052558459   0.045327075   0.006323488
  13  8  0     -546.8223873285    -0.0014947641   0.005713498   0.002561266
  14  9  0     -546.8224047200    -0.0000173915   0.009774915   0.001896475
  15 10  0     -546.8224414611    -0.0000367411   0.003263250   0.001601696
 CONVERGED TO SWOFF, SO DFT CALCULATION IS NOW SWITCHED ON.
          * * *   INITIATING DIIS PROCEDURE   * * *
  16 11  0     -547.9823536952    -1.1599122341   0.620182246   0.101318000
  17 12  0     -547.9837890026    -0.0014353073   0.452963548   0.203095858
  18 13  0     -547.8764306355     0.1073583671   0.210026522   0.341634885
  19 14  0     -548.1154438207    -0.2390131853   0.028204183   0.017512641
  20 15  0     -548.1172625299    -0.0018187091   0.007874898   0.009634749
  21 16  0     -548.1174961592    -0.0002336294   0.001749570   0.000815283
  22 17  0     -548.1174992247    -0.0000030654   0.000713369   0.000598232
  23 18  0     -548.1175002237    -0.0000009991   0.000073679   0.000044946
 DFT CODE IS SWITCHING BACK TO THE FINE GRID
          * * *   INITIATING DIIS PROCEDURE   * * *
  24 19  0     -548.0985653141     0.0189349097   0.012476501   0.006568334
  25 20  0     -548.0986689783    -0.0001036642   0.011394354   0.004197057
  26 21  0     -548.0982903848     0.0003785935   0.012458313   0.014586128
  27 22  0     -548.0987076774    -0.0004172926   0.002118085   0.001964208
  28 23  0     -548.0987218095    -0.0000141321   0.000169423   0.000148034
  29 24  0     -548.0987218809    -0.0000000714   0.000046557   0.000032241
  30 25  0     -548.0987218850    -0.0000000041   0.000009694   0.000005473

 SCF IS UNCONVERGED, TOO MANY ITERATIONS
     TIME TO FORM FOCK OPERATORS=       3.6 SECONDS (       0.1 SEC/ITER)
     TIME TO SOLVE SCF EQUATIONS=       0.0 SECONDS (       0.0 SEC/ITER)

 FINAL R-PBE ENERGY IS        0.0000000000 AFTER  30 ITERATIONS
 DFT EXCHANGE + CORRELATION ENERGY =       -42.1117631047
 TOTAL ELECTRON NUMBER             =        31.9999998271

          ------------
          EIGENVECTORS
          ------------

                      1          2          3          4          5
                  -88.2239   -18.8433   -18.8432    -7.8428    -5.8644
                     A1         B1         A1         A1         B1  
    1  S  1  S    1.002977   0.000000  -0.000053  -0.274144   0.000000
    2  S  1  S   -0.010275   0.000000  -0.000851   1.039561   0.000000
    3  S  1  S    0.001771   0.000000  -0.001607   0.040240   0.000000
    4  S  1  S   -0.000974   0.000000   0.004947  -0.012556   0.000000
    5  S  1  X    0.000000   0.000116   0.000000   0.000000   0.996931
    6  S  1  Y    0.000000   0.000000   0.000000   0.000000   0.000000
    7  S  1  Z    0.000048   0.000000  -0.000035   0.007358   0.000000
    8  S  1  X    0.000000  -0.000285   0.000000   0.000000   0.008784
    9  S  1  Y    0.000000   0.000000   0.000000   0.000000   0.000000
   10  S  1  Z   -0.000007   0.000000   0.000133   0.000420   0.000000
   11  S  1  X    0.000000  -0.005897   0.000000   0.000000  -0.000073
   12  S  1  Y    0.000000   0.000000   0.000000   0.000000   0.000000
   13  S  1  Z   -0.000029   0.000000   0.001099  -0.000391   0.000000
   14  S  1 XX   -0.000022   0.000000   0.001418   0.000106   0.000000
   15  S  1 YY    0.000013   0.000000  -0.000805  -0.000030   0.000000
   16  S  1 ZZ    0.000009   0.000000  -0.000613  -0.000076   0.000000
   17  S  1 XY    0.000000   0.000000   0.000000   0.000000   0.000000
   18  S  1 XZ    0.000000  -0.000953   0.000000   0.000000   0.000423
   19  S  1 YZ    0.000000   0.000000   0.000000   0.000000   0.000000
   20  O  2  S   -0.000002   0.703257   0.703203   0.000004   0.000017
   21  O  2  S   -0.000014   0.025224   0.024504  -0.000005   0.000044
   22  O  2  S    0.000099  -0.011106  -0.008948   0.000774   0.000027
   23  O  2  X    0.000014   0.000718   0.000696   0.000061   0.000050
   24  O  2  Y    0.000000   0.000000   0.000000   0.000000   0.000000
   25  O  2  Z   -0.000006  -0.000267  -0.000110  -0.000039  -0.000025
   26  O  2  X    0.000012  -0.002447  -0.001945  -0.000118  -0.000023
   27  O  2  Y    0.000000   0.000000   0.000000   0.000000   0.000000
   28  O  2  Z    0.000005   0.001001   0.000270   0.000126   0.000037
   29  O  2 XX   -0.000030  -0.000204  -0.000299  -0.000473  -0.000054
   30  O  2 YY    0.000017   0.000135   0.000177   0.000266   0.000032
   31  O  2 ZZ    0.000013   0.000069   0.000122   0.000207   0.000022
   32  O  2 XY    0.000000   0.000000   0.000000   0.000000   0.000000
   33  O  2 XZ    0.000016   0.000152   0.000137   0.000242   0.000035
   34  O  2 YZ    0.000000   0.000000   0.000000   0.000000   0.000000
   35  O  3  S   -0.000002  -0.703257   0.703203   0.000004  -0.000017
   36  O  3  S   -0.000014  -0.025224   0.024504  -0.000005  -0.000044
   37  O  3  S    0.000099   0.011106  -0.008948   0.000774  -0.000027
   38  O  3  X   -0.000014   0.000718  -0.000696  -0.000061   0.000050
   39  O  3  Y    0.000000   0.000000   0.000000   0.000000   0.000000
   40  O  3  Z   -0.000006   0.000267  -0.000110  -0.000039   0.000025
   41  O  3  X   -0.000012  -0.002447   0.001945   0.000118  -0.000023
   42  O  3  Y    0.000000   0.000000   0.000000   0.000000   0.000000
   43  O  3  Z    0.000005  -0.001001   0.000270   0.000126  -0.000037
   44  O  3 XX   -0.000030   0.000204  -0.000299  -0.000473   0.000054
   45  O  3 YY    0.000017  -0.000135   0.000177   0.000266  -0.000032
   46  O  3 ZZ    0.000013  -0.000069   0.000122   0.000207  -0.000022
   47  O  3 XY    0.000000   0.000000   0.000000   0.000000   0.000000
   48  O  3 XZ   -0.000016   0.000152  -0.000137  -0.000242   0.000035
   49  O  3 YZ    0.000000   0.000000   0.000000   0.000000   0.000000

                      6          7          8          9         10
                   -5.8613    -5.8603    -0.9024    -0.8781    -0.6711
                     B2         A1         A1         B1         A1  
    1  S  1  S    0.000000   0.002022   0.036586   0.000000   0.077999
    2  S  1  S    0.000000  -0.007737  -0.109411   0.000000  -0.225552
    3  S  1  S    0.000000  -0.000075   0.213148   0.000000   0.481110
    4  S  1  S    0.000000  -0.000161   0.182082   0.000000   0.466417
    5  S  1  X    0.000000   0.000000   0.000000   0.061594   0.000000
    6  S  1  Y    0.996967   0.000000   0.000000   0.000000   0.000000
    7  S  1  Z    0.000000   0.996958  -0.017549   0.000000  -0.001027
    8  S  1  X    0.000000   0.000000   0.000000  -0.125147   0.000000
    9  S  1  Y    0.008708   0.000000   0.000000   0.000000   0.000000
   10  S  1  Z    0.000000   0.008646   0.037113   0.000000   0.006497
   11  S  1  X    0.000000   0.000000   0.000000  -0.032209   0.000000
   12  S  1  Y   -0.000137   0.000000   0.000000   0.000000   0.000000
   13  S  1  Z    0.000000  -0.000145   0.010074   0.000000  -0.005732
   14  S  1 XX    0.000000  -0.000290   0.031486   0.000000  -0.008632
   15  S  1 YY    0.000000  -0.000193  -0.017661   0.000000   0.005571
   16  S  1 ZZ    0.000000   0.000483  -0.013825   0.000000   0.003062
   17  S  1 XY    0.000000   0.000000   0.000000   0.000000   0.000000
   18  S  1 XZ    0.000000   0.000000   0.000000  -0.017914   0.000000
   19  S  1 YZ    0.000392   0.000000   0.000000   0.000000   0.000000
   20  O  2  S    0.000000  -0.000010  -0.139974  -0.155889   0.084703
   21  O  2  S    0.000000  -0.000070   0.283057   0.315688  -0.177554
   22  O  2  S    0.000000   0.000121   0.355029   0.404317  -0.260303
   23  O  2  X    0.000000  -0.000019   0.057050   0.048355   0.082782
   24  O  2  Y    0.000002   0.000000   0.000000   0.000000   0.000000
   25  O  2  Z    0.000000   0.000009  -0.014087  -0.012760  -0.019420
   26  O  2  X    0.000000   0.000096   0.030371   0.031068   0.037177
   27  O  2  Y   -0.000038   0.000000   0.000000   0.000000   0.000000
   28  O  2  Z    0.000000  -0.000073  -0.008139  -0.008094  -0.006477
   29  O  2 XX    0.000000   0.000037   0.007914   0.007235   0.005499
   30  O  2 YY    0.000000  -0.000026  -0.002915  -0.002388  -0.003900
   31  O  2 ZZ    0.000000  -0.000011  -0.004999  -0.004847  -0.001598
   32  O  2 XY   -0.000026   0.000000   0.000000   0.000000   0.000000
   33  O  2 XZ    0.000000  -0.000050  -0.001808  -0.001452  -0.003497
   34  O  2 YZ    0.000005   0.000000   0.000000   0.000000   0.000000
   35  O  3  S    0.000000  -0.000010  -0.139974   0.155889   0.084703
   36  O  3  S    0.000000  -0.000070   0.283057  -0.315688  -0.177554
   37  O  3  S    0.000000   0.000121   0.355029  -0.404317  -0.260303
   38  O  3  X    0.000000   0.000019  -0.057050   0.048355  -0.082782
   39  O  3  Y    0.000002   0.000000   0.000000   0.000000   0.000000
   40  O  3  Z    0.000000   0.000009  -0.014087   0.012760  -0.019420
   41  O  3  X    0.000000  -0.000096  -0.030371   0.031068  -0.037177
   42  O  3  Y   -0.000038   0.000000   0.000000   0.000000   0.000000
   43  O  3  Z    0.000000  -0.000073  -0.008139   0.008094  -0.006477
   44  O  3 XX    0.000000   0.000037   0.007914  -0.007235   0.005499
   45  O  3 YY    0.000000  -0.000026  -0.002915   0.002388  -0.003900
   46  O  3 ZZ    0.000000  -0.000011  -0.004999   0.004847  -0.001598
   47  O  3 XY    0.000026   0.000000   0.000000   0.000000   0.000000
   48  O  3 XZ    0.000000   0.000050   0.001808  -0.001452   0.003497
   49  O  3 YZ    0.000005   0.000000   0.000000   0.000000   0.000000

                     11         12         13         14         15
                   -0.4247    -0.3726    -0.3704    -0.3091    -0.3021
                     B1         A1         B2         A2         B1  
    1  S  1  S    0.000000  -0.009251   0.000000   0.000000   0.000000
    2  S  1  S    0.000000   0.031641   0.000000   0.000000   0.000000
    3  S  1  S    0.000000  -0.052471   0.000000   0.000000   0.000000
    4  S  1  S    0.000000  -0.113147   0.000000   0.000000   0.000000
    5  S  1  X   -0.185553   0.000000   0.000000   0.000000  -0.020194
    6  S  1  Y    0.000000   0.000000  -0.211850   0.000000   0.000000
    7  S  1  Z    0.000000  -0.212364   0.000000   0.000000   0.000000
    8  S  1  X    0.437362   0.000000   0.000000   0.000000   0.045136
    9  S  1  Y    0.000000   0.000000   0.499913   0.000000   0.000000
   10  S  1  Z    0.000000   0.500401   0.000000   0.000000   0.000000
   11  S  1  X    0.143837   0.000000   0.000000   0.000000   0.074530
   12  S  1  Y    0.000000   0.000000   0.345067   0.000000   0.000000
   13  S  1  Z    0.000000   0.332670   0.000000   0.000000   0.000000
   14  S  1 XX    0.000000   0.005516   0.000000   0.000000   0.000000
   15  S  1 YY    0.000000  -0.017137   0.000000   0.000000   0.000000
   16  S  1 ZZ    0.000000   0.011621   0.000000   0.000000   0.000000
   17  S  1 XY    0.000000   0.000000   0.000000  -0.064431   0.000000
   18  S  1 XZ    0.023883   0.000000   0.000000   0.000000  -0.061559
   19  S  1 YZ    0.000000   0.000000   0.016587   0.000000   0.000000
   20  O  2  S   -0.045963   0.009987   0.000000   0.000000  -0.003316
   21  O  2  S    0.104172  -0.020104   0.000000   0.000000   0.002651
   22  O  2  S    0.156138  -0.043205   0.000000   0.000000   0.032956
   23  O  2  X   -0.337301   0.204495   0.000000   0.000000   0.157738
   24  O  2  Y    0.000000   0.000000   0.284485   0.476234   0.000000
   25  O  2  Z    0.089183   0.200142   0.000000   0.000000   0.446447
   26  O  2  X   -0.218331   0.130480   0.000000   0.000000   0.120742
   27  O  2  Y    0.000000   0.000000   0.180534   0.336267   0.000000
   28  O  2  Z    0.059186   0.127095   0.000000   0.000000   0.312364
   29  O  2 XX   -0.012948   0.008771   0.000000   0.000000   0.005001
   30  O  2 YY    0.007923  -0.002535   0.000000   0.000000  -0.000042
   31  O  2 ZZ    0.005025  -0.006236   0.000000   0.000000  -0.004959
   32  O  2 XY    0.000000   0.000000   0.011175   0.010256   0.000000
   33  O  2 XZ    0.007869   0.006929   0.000000   0.000000   0.008932
   34  O  2 YZ    0.000000   0.000000  -0.002930  -0.002957   0.000000
   35  O  3  S    0.045963   0.009987   0.000000   0.000000   0.003316
   36  O  3  S   -0.104172  -0.020104   0.000000   0.000000  -0.002651
   37  O  3  S   -0.156138  -0.043205   0.000000   0.000000  -0.032956
   38  O  3  X   -0.337301  -0.204495   0.000000   0.000000   0.157738
   39  O  3  Y    0.000000   0.000000   0.284485  -0.476234   0.000000
   40  O  3  Z   -0.089183   0.200142   0.000000   0.000000  -0.446447
   41  O  3  X   -0.218331  -0.130480   0.000000   0.000000   0.120742
   42  O  3  Y    0.000000   0.000000   0.180534  -0.336267   0.000000
   43  O  3  Z   -0.059186   0.127095   0.000000   0.000000  -0.312364
   44  O  3 XX    0.012948   0.008771   0.000000   0.000000  -0.005001
   45  O  3 YY   -0.007923  -0.002535   0.000000   0.000000   0.000042
   46  O  3 ZZ   -0.005025  -0.006236   0.000000   0.000000   0.004959
   47  O  3 XY    0.000000   0.000000  -0.011175   0.010256   0.000000
   48  O  3 XZ    0.007869  -0.006929   0.000000   0.000000   0.008932
   49  O  3 YZ    0.000000   0.000000  -0.002930   0.002957   0.000000

                     16         17         18         19         20
                   -0.2828    -0.2482    -0.2250    -0.0712     0.3322
                     A1         B2         A1         B1         B1  
    1  S  1  S    0.021050   0.000000   0.015799   0.000000   0.000000
    2  S  1  S   -0.074767   0.000000  -0.045332   0.000000   0.000000
    3  S  1  S    0.118708   0.000000   0.104883   0.000000   0.000000
    4  S  1  S    0.307574   0.000000   0.192273   0.000000   0.000000
    5  S  1  X    0.000000   0.000000   0.000000  -0.243967   0.235881
    6  S  1  Y    0.000000  -0.195171   0.000000   0.000000   0.000000
    7  S  1  Z    0.038288   0.000000  -0.191729   0.000000   0.000000
    8  S  1  X    0.000000   0.000000   0.000000   0.631195  -0.954676
    9  S  1  Y    0.000000   0.483001   0.000000   0.000000   0.000000
   10  S  1  Z   -0.095068   0.000000   0.477543   0.000000   0.000000
   11  S  1  X    0.000000   0.000000   0.000000   0.684226   1.625691
   12  S  1  Y    0.000000   0.336875   0.000000   0.000000   0.000000
   13  S  1  Z   -0.017337   0.000000   0.365405   0.000000   0.000000
   14  S  1 XX   -0.101807   0.000000  -0.058670   0.000000   0.000000
   15  S  1 YY    0.047897   0.000000   0.038685   0.000000   0.000000
   16  S  1 ZZ    0.053910   0.000000   0.019985   0.000000   0.000000
   17  S  1 XY    0.000000   0.000000   0.000000   0.000000   0.000000
   18  S  1 XZ    0.000000   0.000000   0.000000  -0.074187  -0.276777
   19  S  1 YZ    0.000000  -0.008971   0.000000   0.000000   0.000000
   20  O  2  S   -0.000976   0.000000   0.011247  -0.044425  -0.029122
   21  O  2  S    0.005819   0.000000  -0.022814   0.089474   0.010052
   22  O  2  S   -0.023198   0.000000  -0.072278   0.306345   0.532904
   23  O  2  X   -0.293702   0.000000  -0.332656   0.329044  -0.206035
   24  O  2  Y    0.000000  -0.402290   0.000000   0.000000   0.000000
   25  O  2  Z    0.374127   0.000000  -0.235218  -0.173974  -0.079330
   26  O  2  X   -0.212908   0.000000  -0.247413   0.315731   0.331374
   27  O  2  Y    0.000000  -0.287623   0.000000   0.000000   0.000000
   28  O  2  Z    0.264799   0.000000  -0.167565  -0.140079  -0.069795
   29  O  2 XX   -0.004621   0.000000  -0.001074  -0.002543   0.049495
   30  O  2 YY    0.004020   0.000000   0.000956   0.002853  -0.023438
   31  O  2 ZZ    0.000601   0.000000   0.000118  -0.000310  -0.026057
   32  O  2 XY    0.000000  -0.000337   0.000000   0.000000   0.000000
   33  O  2 XZ    0.008134   0.000000   0.002646   0.005998  -0.007695
   34  O  2 YZ    0.000000   0.000211   0.000000   0.000000   0.000000
   35  O  3  S   -0.000976   0.000000   0.011247   0.044425   0.029122
   36  O  3  S    0.005819   0.000000  -0.022814  -0.089474  -0.010052
   37  O  3  S   -0.023198   0.000000  -0.072278  -0.306345  -0.532904
   38  O  3  X    0.293702   0.000000   0.332656   0.329044  -0.206035
   39  O  3  Y    0.000000  -0.402290   0.000000   0.000000   0.000000
   40  O  3  Z    0.374127   0.000000  -0.235218   0.173974   0.079330
   41  O  3  X    0.212908   0.000000   0.247413   0.315731   0.331374
   42  O  3  Y    0.000000  -0.287623   0.000000   0.000000   0.000000
   43  O  3  Z    0.264799   0.000000  -0.167565   0.140079   0.069795
   44  O  3 XX   -0.004621   0.000000  -0.001074   0.002543  -0.049495
   45  O  3 YY    0.004020   0.000000   0.000956  -0.002853   0.023438
   46  O  3 ZZ    0.000601   0.000000   0.000118   0.000310   0.026057
   47  O  3 XY    0.000000   0.000337   0.000000   0.000000   0.000000
   48  O  3 XZ   -0.008134   0.000000  -0.002646   0.005998  -0.007695
   49  O  3 YZ    0.000000   0.000211   0.000000   0.000000   0.000000

                     21         22         23         24         25
                    0.3675     0.3700     0.3926     0.4586     0.4990
                     A1         B2         A1         A2         A1  
    1  S  1  S   -0.025329   0.000000  -0.103911   0.000000   0.004462
    2  S  1  S   -0.114184   0.000000  -0.361161   0.000000   0.016327
    3  S  1  S   -0.420432   0.000000  -1.588041   0.000000   0.069338
    4  S  1  S    0.587054   0.000000   1.820648   0.000000  -0.082709
    5  S  1  X    0.000000   0.000000   0.000000   0.000000   0.000000
    6  S  1  Y    0.000000   0.298197   0.000000   0.000000   0.000000
    7  S  1  Z    0.281474   0.000000  -0.088603   0.000000   0.020186
    8  S  1  X    0.000000   0.000000   0.000000   0.000000   0.000000
    9  S  1  Y    0.000000  -1.149000   0.000000   0.000000   0.000000
   10  S  1  Z   -1.087129   0.000000   0.338710   0.000000  -0.070604
   11  S  1  X    0.000000   0.000000   0.000000   0.000000   0.000000
   12  S  1  Y    0.000000   1.208547   0.000000   0.000000   0.000000
   13  S  1  Z    1.193061   0.000000  -0.303131   0.000000   0.026104
   14  S  1 XX   -0.124284   0.000000  -0.355726   0.000000  -0.069611
   15  S  1 YY    0.130749   0.000000   0.169387   0.000000  -0.810872
   16  S  1 ZZ   -0.006465   0.000000   0.186340   0.000000   0.880483
   17  S  1 XY    0.000000   0.000000   0.000000   0.849056   0.000000
   18  S  1 XZ    0.000000   0.000000   0.000000   0.000000   0.000000
   19  S  1 YZ    0.000000  -0.072145   0.000000   0.000000   0.000000
   20  O  2  S    0.007648   0.000000   0.009098   0.000000  -0.001524
   21  O  2  S    0.001418   0.000000  -0.012174   0.000000   0.007801
   22  O  2  S   -0.159860   0.000000  -0.143878   0.000000   0.003529
   23  O  2  X    0.043013   0.000000   0.072489   0.000000  -0.027445
   24  O  2  Y    0.000000  -0.114014   0.000000   0.327494   0.000000
   25  O  2  Z   -0.145919   0.000000  -0.050265   0.000000  -0.115904
   26  O  2  X   -0.126183   0.000000  -0.129018   0.000000   0.032361
   27  O  2  Y    0.000000  -0.058813   0.000000  -0.225435   0.000000
   28  O  2  Z   -0.016202   0.000000   0.080812   0.000000   0.080915
   29  O  2 XX   -0.022182   0.000000  -0.033154   0.000000   0.007753
   30  O  2 YY    0.013381   0.000000   0.020896   0.000000  -0.009415
   31  O  2 ZZ    0.008802   0.000000   0.012258   0.000000   0.001662
   32  O  2 XY    0.000000  -0.001975   0.000000  -0.046722   0.000000
   33  O  2 XZ    0.012256   0.000000   0.026252   0.000000   0.016511
   34  O  2 YZ    0.000000  -0.000081   0.000000   0.014716   0.000000
   35  O  3  S    0.007648   0.000000   0.009098   0.000000  -0.001524
   36  O  3  S    0.001418   0.000000  -0.012174   0.000000   0.007801
   37  O  3  S   -0.159860   0.000000  -0.143878   0.000000   0.003529
   38  O  3  X   -0.043013   0.000000  -0.072489   0.000000   0.027445
   39  O  3  Y    0.000000  -0.114014   0.000000  -0.327494   0.000000
   40  O  3  Z   -0.145919   0.000000  -0.050265   0.000000  -0.115904
   41  O  3  X    0.126183   0.000000   0.129018   0.000000  -0.032361
   42  O  3  Y    0.000000  -0.058813   0.000000   0.225435   0.000000
   43  O  3  Z   -0.016202   0.000000   0.080812   0.000000   0.080915
   44  O  3 XX   -0.022182   0.000000  -0.033154   0.000000   0.007753
   45  O  3 YY    0.013381   0.000000   0.020896   0.000000  -0.009415
   46  O  3 ZZ    0.008802   0.000000   0.012258   0.000000   0.001662
   47  O  3 XY    0.000000   0.001975   0.000000  -0.046722   0.000000
   48  O  3 XZ   -0.012256   0.000000  -0.026252   0.000000  -0.016511
   49  O  3 YZ    0.000000  -0.000081   0.000000  -0.014716   0.000000

                     26         27         28         29         30
                    0.4993     0.5342     0.6650     0.7918     0.7981
                     B2         B1         A1         B1         A2  
    1  S  1  S    0.000000   0.000000  -0.053498   0.000000   0.000000
    2  S  1  S    0.000000   0.000000  -0.237282   0.000000   0.000000
    3  S  1  S    0.000000   0.000000  -0.886740   0.000000   0.000000
    4  S  1  S    0.000000   0.000000   1.206303   0.000000   0.000000
    5  S  1  X    0.000000   0.078490   0.000000  -0.028662   0.000000
    6  S  1  Y    0.019194   0.000000   0.000000   0.000000   0.000000
    7  S  1  Z    0.000000   0.000000   0.017820   0.000000   0.000000
    8  S  1  X    0.000000  -0.361718   0.000000   0.143776   0.000000
    9  S  1  Y   -0.067430   0.000000   0.000000   0.000000   0.000000
   10  S  1  Z    0.000000   0.000000  -0.093497   0.000000   0.000000
   11  S  1  X    0.000000   0.897417   0.000000  -0.070437   0.000000
   12  S  1  Y    0.028104   0.000000   0.000000   0.000000   0.000000
   13  S  1  Z    0.000000   0.000000   0.281471   0.000000   0.000000
   14  S  1 XX    0.000000   0.000000   0.846785   0.000000   0.000000
   15  S  1 YY    0.000000   0.000000  -0.527176   0.000000   0.000000
   16  S  1 ZZ    0.000000   0.000000  -0.319609   0.000000   0.000000
   17  S  1 XY    0.000000   0.000000   0.000000   0.000000   0.544507
   18  S  1 XZ    0.000000   0.813209   0.000000   0.504081   0.000000
   19  S  1 YZ    0.981562   0.000000   0.000000   0.000000   0.000000
   20  O  2  S    0.000000  -0.039190   0.050013  -0.010036   0.000000
   21  O  2  S    0.000000   0.176677  -0.317834   0.081375   0.000000
   22  O  2  S    0.000000   0.221149  -0.007509  -0.055449   0.000000
   23  O  2  X    0.000000   0.083225  -0.071090  -0.266457   0.000000
   24  O  2  Y   -0.113007   0.000000   0.000000   0.000000  -0.557367
   25  O  2  Z    0.000000   0.266269   0.165107  -0.495677   0.000000
   26  O  2  X    0.000000   0.194764  -0.302626   0.406053   0.000000
   27  O  2  Y    0.083285   0.000000   0.000000   0.000000   0.714069
   28  O  2  Z    0.000000  -0.305259  -0.087553   0.607177   0.000000
   29  O  2 XX    0.000000  -0.018165   0.027230  -0.044824   0.000000
   30  O  2 YY    0.000000  -0.001498  -0.022001   0.015075   0.000000
   31  O  2 ZZ    0.000000   0.019663  -0.005229   0.029749   0.000000
   32  O  2 XY    0.017317   0.000000   0.000000   0.000000  -0.043651
   33  O  2 XZ    0.000000  -0.035443  -0.032756  -0.017345   0.000000
   34  O  2 YZ    0.006602   0.000000   0.000000   0.000000   0.013526
   35  O  3  S    0.000000   0.039190   0.050013   0.010036   0.000000
   36  O  3  S    0.000000  -0.176677  -0.317834  -0.081375   0.000000
   37  O  3  S    0.000000  -0.221149  -0.007509   0.055449   0.000000
   38  O  3  X    0.000000   0.083225   0.071090  -0.266457   0.000000
   39  O  3  Y   -0.113007   0.000000   0.000000   0.000000   0.557367
   40  O  3  Z    0.000000  -0.266269   0.165107   0.495677   0.000000
   41  O  3  X    0.000000   0.194764   0.302626   0.406053   0.000000
   42  O  3  Y    0.083285   0.000000   0.000000   0.000000  -0.714069
   43  O  3  Z    0.000000   0.305259  -0.087553  -0.607177   0.000000
   44  O  3 XX    0.000000   0.018165   0.027230   0.044824   0.000000
   45  O  3 YY    0.000000   0.001498  -0.022001  -0.015075   0.000000
   46  O  3 ZZ    0.000000  -0.019663  -0.005229  -0.029749   0.000000
   47  O  3 XY   -0.017317   0.000000   0.000000   0.000000  -0.043651
   48  O  3 XZ    0.000000  -0.035443   0.032756  -0.017345   0.000000
   49  O  3 YZ    0.006602   0.000000   0.000000   0.000000  -0.013526

                     31         32         33         34         35
                    0.7991     0.8093     0.8139     0.8259     1.4566
                     B2         A1         A1         B1         A1  
    1  S  1  S    0.000000  -0.022439  -0.000487   0.000000   0.023974
    2  S  1  S    0.000000  -0.012714  -0.013596   0.000000   0.235990
    3  S  1  S    0.000000  -0.272648  -0.020493   0.000000   0.556532
    4  S  1  S    0.000000  -0.239361   0.126117   0.000000  -1.306467
    5  S  1  X    0.000000   0.000000   0.000000  -0.114065   0.000000
    6  S  1  Y   -0.034682   0.000000   0.000000   0.000000   0.000000
    7  S  1  Z    0.000000   0.025824  -0.036310   0.000000   0.005561
    8  S  1  X    0.000000   0.000000   0.000000   0.535939   0.000000
    9  S  1  Y    0.181268   0.000000   0.000000   0.000000   0.000000
   10  S  1  Z    0.000000  -0.117146   0.187772   0.000000  -0.008989
   11  S  1  X    0.000000   0.000000   0.000000  -0.092993   0.000000
   12  S  1  Y   -0.511142   0.000000   0.000000   0.000000   0.000000
   13  S  1  Z    0.000000  -0.071295  -0.463015   0.000000  -0.283957
   14  S  1 XX    0.000000  -0.039504   0.305410   0.000000  -0.445435
   15  S  1 YY    0.000000   0.049138  -0.015692   0.000000   0.257126
   16  S  1 ZZ    0.000000  -0.009634  -0.289719   0.000000   0.188309
   17  S  1 XY    0.000000   0.000000   0.000000   0.000000   0.000000
   18  S  1 XZ    0.000000   0.000000   0.000000  -0.110229   0.000000
   19  S  1 YZ   -0.180106   0.000000   0.000000   0.000000   0.000000
   20  O  2  S    0.000000  -0.020401   0.008757  -0.016161   0.019582
   21  O  2  S    0.000000   0.212659  -0.065285   0.188288  -1.068341
   22  O  2  S    0.000000  -0.123154   0.046697  -0.158352   1.326794
   23  O  2  X    0.000000  -0.616661  -0.078936  -0.525007  -0.138050
   24  O  2  Y   -0.620324   0.000000   0.000000   0.000000   0.000000
   25  O  2  Z    0.000000   0.058142  -0.590656   0.288507  -0.000554
   26  O  2  X    0.000000   0.843057   0.040126   0.708353   0.527318
   27  O  2  Y    0.820571   0.000000   0.000000   0.000000   0.000000
   28  O  2  Z    0.000000  -0.080595   0.805557  -0.375750  -0.058352
   29  O  2 XX    0.000000  -0.029409   0.016451  -0.034058  -0.176443
   30  O  2 YY    0.000000   0.015494  -0.014016   0.022682   0.101923
   31  O  2 ZZ    0.000000   0.013915  -0.002435   0.011376   0.074520
   32  O  2 XY   -0.019389   0.000000   0.000000   0.000000   0.000000
   33  O  2 XZ    0.000000   0.007076  -0.038773   0.030007   0.084718
   34  O  2 YZ    0.002049   0.000000   0.000000   0.000000   0.000000
   35  O  3  S    0.000000  -0.020401   0.008757   0.016161   0.019582
   36  O  3  S    0.000000   0.212659  -0.065285  -0.188288  -1.068341
   37  O  3  S    0.000000  -0.123154   0.046697   0.158352   1.326794
   38  O  3  X    0.000000   0.616661   0.078936  -0.525007   0.138050
   39  O  3  Y   -0.620324   0.000000   0.000000   0.000000   0.000000
   40  O  3  Z    0.000000   0.058142  -0.590656  -0.288507  -0.000554
   41  O  3  X    0.000000  -0.843057  -0.040126   0.708353  -0.527318
   42  O  3  Y    0.820571   0.000000   0.000000   0.000000   0.000000
   43  O  3  Z    0.000000  -0.080595   0.805557   0.375750  -0.058352
   44  O  3 XX    0.000000  -0.029409   0.016451   0.034058  -0.176443
   45  O  3 YY    0.000000   0.015494  -0.014016  -0.022682   0.101923
   46  O  3 ZZ    0.000000   0.013915  -0.002435  -0.011376   0.074520
   47  O  3 XY    0.019389   0.000000   0.000000   0.000000   0.000000
   48  O  3 XZ    0.000000  -0.007076   0.038773   0.030007  -0.084718
   49  O  3 YZ    0.002049   0.000000   0.000000   0.000000   0.000000

                     36         37         38         39         40
                    1.6273     2.0795     2.0795     2.0802     2.0819
                     B1         B1         A2         B2         A1  
    1  S  1  S    0.000000   0.000000   0.000000   0.000000  -0.000259
    2  S  1  S    0.000000   0.000000   0.000000   0.000000  -0.007402
    3  S  1  S    0.000000   0.000000   0.000000   0.000000  -0.012260
    4  S  1  S    0.000000   0.000000   0.000000   0.000000   0.039453
    5  S  1  X   -0.019515  -0.002005   0.000000   0.000000   0.000000
    6  S  1  Y    0.000000   0.000000   0.000000   0.002212   0.000000
    7  S  1  Z    0.000000   0.000000   0.000000   0.000000  -0.001702
    8  S  1  X    0.002396   0.004257   0.000000   0.000000   0.000000
    9  S  1  Y    0.000000   0.000000   0.000000   0.012299   0.000000
   10  S  1  Z    0.000000   0.000000   0.000000   0.000000  -0.002268
   11  S  1  X    1.297838   0.018938   0.000000   0.000000   0.000000
   12  S  1  Y    0.000000   0.000000   0.000000  -0.086608   0.000000
   13  S  1  Z    0.000000   0.000000   0.000000   0.000000   0.041968
   14  S  1 XX    0.000000   0.000000   0.000000   0.000000   0.001680
   15  S  1 YY    0.000000   0.000000   0.000000   0.000000  -0.036922
   16  S  1 ZZ    0.000000   0.000000   0.000000   0.000000   0.035243
   17  S  1 XY    0.000000   0.000000   0.040850   0.000000   0.000000
   18  S  1 XZ    0.275032  -0.037315   0.000000   0.000000   0.000000
   19  S  1 YZ    0.000000   0.000000   0.000000  -0.055930   0.000000
   20  O  2  S    0.012107   0.000273   0.000000   0.000000   0.000229
   21  O  2  S   -1.192321  -0.009930   0.000000   0.000000   0.021128
   22  O  2  S    1.716026   0.015045   0.000000   0.000000  -0.032915
   23  O  2  X   -0.128564  -0.001764   0.000000   0.000000   0.008052
   24  O  2  Y    0.000000   0.000000  -0.005695  -0.019816   0.000000
   25  O  2  Z    0.073726   0.006831   0.000000   0.000000   0.007674
   26  O  2  X    0.557901   0.004067   0.000000   0.000000  -0.022936
   27  O  2  Y    0.000000   0.000000   0.008985   0.037148   0.000000
   28  O  2  Z   -0.240736  -0.010836   0.000000   0.000000  -0.013266
   29  O  2 XX   -0.156459  -0.114152   0.000000   0.000000  -0.130997
   30  O  2 YY    0.083395   0.583318   0.000000   0.000000   0.604658
   31  O  2 ZZ    0.073064  -0.469167   0.000000   0.000000  -0.473661
   32  O  2 XY    0.000000   0.000000   0.342236   0.559568   0.000000
   33  O  2 XZ    0.065477  -0.343210   0.000000   0.000000  -0.308817
   34  O  2 YZ    0.000000   0.000000   0.618799   0.434124   0.000000
   35  O  3  S   -0.012107  -0.000273   0.000000   0.000000   0.000229
   36  O  3  S    1.192321   0.009930   0.000000   0.000000   0.021128
   37  O  3  S   -1.716026  -0.015045   0.000000   0.000000  -0.032915
   38  O  3  X   -0.128564  -0.001764   0.000000   0.000000  -0.008052
   39  O  3  Y    0.000000   0.000000   0.005695  -0.019816   0.000000
   40  O  3  Z   -0.073726  -0.006831   0.000000   0.000000   0.007674
   41  O  3  X    0.557901   0.004067   0.000000   0.000000   0.022936
   42  O  3  Y    0.000000   0.000000  -0.008985   0.037148   0.000000
   43  O  3  Z    0.240736   0.010836   0.000000   0.000000  -0.013266
   44  O  3 XX    0.156459   0.114152   0.000000   0.000000  -0.130997
   45  O  3 YY   -0.083395  -0.583318   0.000000   0.000000   0.604658
   46  O  3 ZZ   -0.073064   0.469167   0.000000   0.000000  -0.473661
   47  O  3 XY    0.000000   0.000000   0.342236  -0.559568   0.000000
   48  O  3 XZ    0.065477  -0.343210   0.000000   0.000000   0.308817
   49  O  3 YZ    0.000000   0.000000  -0.618799   0.434124   0.000000

                     41         42         43         44         45
                    2.0869     2.0980     2.1039     2.1136     2.2615
                     B2         A1         B1         A2         B1  
    1  S  1  S    0.000000   0.000145   0.000000   0.000000   0.000000
    2  S  1  S    0.000000   0.021306   0.000000   0.000000   0.000000
    3  S  1  S    0.000000   0.028853   0.000000   0.000000   0.000000
    4  S  1  S    0.000000  -0.112129   0.000000   0.000000   0.000000
    5  S  1  X    0.000000   0.000000   0.024049   0.000000  -0.105378
    6  S  1  Y   -0.003202   0.000000   0.000000   0.000000   0.000000
    7  S  1  Z    0.000000   0.007350   0.000000   0.000000   0.000000
    8  S  1  X    0.000000   0.000000  -0.073434   0.000000   0.353462
    9  S  1  Y   -0.014812   0.000000   0.000000   0.000000   0.000000
   10  S  1  Z    0.000000   0.005994   0.000000   0.000000   0.000000
   11  S  1  X    0.000000   0.000000  -0.100029   0.000000   0.340994
   12  S  1  Y    0.110980   0.000000   0.000000   0.000000   0.000000
   13  S  1  Z    0.000000  -0.151758   0.000000   0.000000   0.000000
   14  S  1 XX    0.000000   0.013791   0.000000   0.000000   0.000000
   15  S  1 YY    0.000000   0.036913   0.000000   0.000000   0.000000
   16  S  1 ZZ    0.000000  -0.050703   0.000000   0.000000   0.000000
   17  S  1 XY    0.000000   0.000000   0.000000   0.195156   0.000000
   18  S  1 XZ    0.000000   0.000000   0.116924   0.000000   0.277259
   19  S  1 YZ    0.027502   0.000000   0.000000   0.000000   0.000000
   20  O  2  S    0.000000   0.000680   0.000233   0.000000  -0.002596
   21  O  2  S    0.000000  -0.065071   0.078592   0.000000  -0.365915
   22  O  2  S    0.000000   0.094270  -0.121948   0.000000   0.553590
   23  O  2  X    0.000000  -0.027917   0.021512   0.000000  -0.099751
   24  O  2  Y    0.024237   0.000000   0.000000  -0.025989   0.000000
   25  O  2  Z    0.000000  -0.026871  -0.028995   0.000000   0.021295
   26  O  2  X    0.000000   0.070128  -0.056334   0.000000   0.325421
   27  O  2  Y   -0.044336   0.000000   0.000000   0.042768   0.000000
   28  O  2  Z    0.000000   0.046286   0.051484   0.000000  -0.078861
   29  O  2 XX    0.000000   0.366707   0.146292   0.000000   0.678527
   30  O  2 YY    0.000000   0.101752   0.239264   0.000000  -0.317476
   31  O  2 ZZ    0.000000  -0.468459  -0.385556   0.000000  -0.361051
   32  O  2 XY   -0.437166   0.000000   0.000000   0.619188   0.000000
   33  O  2 XZ    0.000000   0.511014   0.590536   0.000000  -0.180106
   34  O  2 YZ    0.558403   0.000000   0.000000  -0.342218   0.000000
   35  O  3  S    0.000000   0.000680  -0.000233   0.000000   0.002596
   36  O  3  S    0.000000  -0.065071  -0.078592   0.000000   0.365915
   37  O  3  S    0.000000   0.094270   0.121948   0.000000  -0.553590
   38  O  3  X    0.000000   0.027917   0.021512   0.000000  -0.099751
   39  O  3  Y    0.024237   0.000000   0.000000   0.025989   0.000000
   40  O  3  Z    0.000000  -0.026871   0.028995   0.000000  -0.021295
   41  O  3  X    0.000000  -0.070128  -0.056334   0.000000   0.325421
   42  O  3  Y   -0.044336   0.000000   0.000000  -0.042768   0.000000
   43  O  3  Z    0.000000   0.046286  -0.051484   0.000000   0.078861
   44  O  3 XX    0.000000   0.366707  -0.146292   0.000000  -0.678527
   45  O  3 YY    0.000000   0.101752  -0.239264   0.000000   0.317476
   46  O  3 ZZ    0.000000  -0.468459   0.385556   0.000000   0.361051
   47  O  3 XY    0.437166   0.000000   0.000000   0.619188   0.000000
   48  O  3 XZ    0.000000  -0.511014   0.590536   0.000000  -0.180106
   49  O  3 YZ    0.558403   0.000000   0.000000   0.342218   0.000000

                     46
                    2.4057
                     A1  
    1  S  1  S   -0.000698
    2  S  1  S   -0.154737
    3  S  1  S   -0.205982
    4  S  1  S    0.814198
    5  S  1  X    0.000000
    6  S  1  Y    0.000000
    7  S  1  Z   -0.029959
    8  S  1  X    0.000000
    9  S  1  Y    0.000000
   10  S  1  Z    0.104661
   11  S  1  X    0.000000
   12  S  1  Y    0.000000
   13  S  1  Z    0.098894
   14  S  1 XX    0.565460
   15  S  1 YY   -0.308324
   16  S  1 ZZ   -0.257136
   17  S  1 XY    0.000000
   18  S  1 XZ    0.000000
   19  S  1 YZ    0.000000
   20  O  2  S    0.006851
   21  O  2  S    0.404362
   22  O  2  S   -0.612069
   23  O  2  X    0.095363
   24  O  2  Y    0.000000
   25  O  2  Z   -0.028913
   26  O  2  X   -0.404527
   27  O  2  Y    0.000000
   28  O  2  Z    0.112714
   29  O  2 XX   -0.593111
   30  O  2 YY    0.352846
   31  O  2 ZZ    0.240265
   32  O  2 XY    0.000000
   33  O  2 XZ    0.385731
   34  O  2 YZ    0.000000
   35  O  3  S    0.006851
   36  O  3  S    0.404362
   37  O  3  S   -0.612069
   38  O  3  X   -0.095363
   39  O  3  Y    0.000000
   40  O  3  Z   -0.028913
   41  O  3  X    0.404527
   42  O  3  Y    0.000000
   43  O  3  Z    0.112714
   44  O  3 XX   -0.593111
   45  O  3 YY    0.352846
   46  O  3 ZZ    0.240265
   47  O  3 XY    0.000000
   48  O  3 XZ   -0.385731
   49  O  3 YZ    0.000000
 ...... END OF RHF CALCULATION ......
 STEP CPU TIME =     3.67 TOTAL CPU TIME =        3.8 (    0.1 MIN)
 TOTAL WALL CLOCK TIME=        3.8 SECONDS, CPU UTILIZATION IS 100.00%

     ---------------------------------------------------------------------
     PROPERTIES FOR THE PBE      DFT FUNCTIONAL (RHF  TYPE) DENSITY MATRIX
     ---------------------------------------------------------------------

          -----------------
          ENERGY COMPONENTS
          -----------------

         WAVEFUNCTION NORMALIZATION =       1.0000000000

                ONE ELECTRON ENERGY =    -915.6216725376
                TWO ELECTRON ENERGY =     835.0951446172
           NUCLEAR REPULSION ENERGY =      80.5265279204
                                      ------------------
                       TOTAL ENERGY =       0.0000000000

 ELECTRON-ELECTRON POTENTIAL ENERGY =     835.0951446172
  NUCLEUS-ELECTRON POTENTIAL ENERGY =   -1462.2238502187
   NUCLEUS-NUCLEUS POTENTIAL ENERGY =      80.5265279204
                                      ------------------
             TOTAL POTENTIAL ENERGY =    -546.6021776811
               TOTAL KINETIC ENERGY =     546.6021776811
                 VIRIAL RATIO (V/T) =       1.0000000000

          ---------------------------------------
          MULLIKEN AND LOWDIN POPULATION ANALYSES
          ---------------------------------------

     ATOMIC MULLIKEN POPULATION IN EACH MOLECULAR ORBITAL

                      1          2          3          4          5

                  2.000000   2.000000   2.000000   2.000000   2.000000

    1             1.999999   0.000851   0.000285   2.000004   1.999995
    2             0.000000   0.999575   0.999857  -0.000002   0.000003
    3             0.000000   0.999575   0.999857  -0.000002   0.000003

                      6          7          8          9         10

                  2.000000   2.000000   2.000000   2.000000   2.000000

    1             2.000002   1.999995   0.430379   0.123557   1.428590
    2            -0.000001   0.000003   0.784811   0.938222   0.285705
    3            -0.000001   0.000003   0.784811   0.938222   0.285705

                     11         12         13         14         15

                  2.000000   2.000000   2.000000   2.000000   2.000000

    1             0.653072   1.207609   1.210842   0.024072   0.043514
    2             0.673464   0.396196   0.394579   0.987964   0.978243
    3             0.673464   0.396196   0.394579   0.987964   0.978243

                     16

                  2.000000

    1             0.187984
    2             0.906008
    3             0.906008

               ----- POPULATIONS IN EACH AO -----
                             MULLIKEN      LOWDIN
              1  S  1  S      2.00021     1.99614
              2  S  1  S      2.01094     1.97626
              3  S  1  S      1.03336     0.66928
              4  S  1  S      0.92047     0.57488
              5  S  1  X      1.99610     1.95198
              6  S  1  Y      1.99632     1.95630
              7  S  1  Z      1.99646     1.95745
              8  S  1  X      0.61280     0.56721
              9  S  1  Y      0.68353     0.66853
             10  S  1  Z      0.71429     0.69686
             11  S  1  X      0.18237     0.34130
             12  S  1  Y      0.52984     0.57383
             13  S  1  Z      0.50025     0.55525
             14  S  1 XX      0.02087     0.24737
             15  S  1 YY      0.05800     0.27775
             16  S  1 ZZ      0.02407     0.27397
             17  S  1 XY      0.02972     0.02763
             18  S  1 XZ      0.00115     0.03647
             19  S  1 YZ      0.00000     0.00108
             20  O  2  S      1.99802     1.98154
             21  O  2  S      0.86299     0.67628
             22  O  2  S      1.11630     0.62378
             23  O  2  X      0.77320     0.73837
             24  O  2  Y      0.83007     0.80092
             25  O  2  Z      1.04158     1.01125
             26  O  2  X      0.49883     0.56488
             27  O  2  Y      0.55105     0.58366
             28  O  2  Z      0.66608     0.70112
             29  O  2 XX      0.00093     0.21490
             30  O  2 YY      0.00259     0.21485
             31  O  2 ZZ      0.00133     0.20988
             32  O  2 XY      0.00157     0.00161
             33  O  2 XZ      0.00010     0.00205
             34  O  2 YZ      0.00000     0.00012
             35  O  3  S      1.99802     1.98154
             36  O  3  S      0.86299     0.67628
             37  O  3  S      1.11630     0.62378
             38  O  3  X      0.77320     0.73837
             39  O  3  Y      0.83007     0.80092
             40  O  3  Z      1.04158     1.01125
             41  O  3  X      0.49883     0.56488
             42  O  3  Y      0.55105     0.58366
             43  O  3  Z      0.66608     0.70112
             44  O  3 XX      0.00093     0.21490
             45  O  3 YY      0.00259     0.21485
             46  O  3 ZZ      0.00133     0.20988
             47  O  3 XY      0.00157     0.00161
             48  O  3 XZ      0.00010     0.00205
             49  O  3 YZ      0.00000     0.00012

          ----- MULLIKEN ATOMIC OVERLAP POPULATIONS -----
          (OFF-DIAGONAL ELEMENTS NEED TO BE MULTIPLIED BY 2)

             1           2           3

    1   14.9576010
    2    0.1765740   8.1681049
    3    0.1765740  -0.0000534   8.1681049

          TOTAL MULLIKEN AND LOWDIN ATOMIC POPULATIONS
       ATOM         MULL.POP.    CHARGE          LOW.POP.     CHARGE
    1 S            15.310749    0.689251        15.349545    0.650455
    2 O             8.344625   -0.344625         8.325227   -0.325227
    3 O             8.344625   -0.344625         8.325227   -0.325227

          MULLIKEN SPHERICAL HARMONIC POPULATIONS
       ATOM           S       P       D      F      G      H      I    TOTAL
    1 S             5.96    9.21    0.13   0.00   0.00   0.00   0.00   15.31
    2 O             3.98    4.36    0.01   0.00   0.00   0.00   0.00    8.34
    3 O             3.98    4.36    0.01   0.00   0.00   0.00   0.00    8.34

          -------------------------------
          BOND ORDER AND VALENCE ANALYSIS     BOND ORDER THRESHOLD=0.050
          -------------------------------

                   BOND                       BOND                       BOND
  ATOM PAIR DIST  ORDER      ATOM PAIR DIST  ORDER      ATOM PAIR DIST  ORDER
    1   2  1.900  1.535        1   3  1.900  1.535        2   3  3.671  0.683

                       TOTAL       BONDED        FREE
      ATOM            VALENCE     VALENCE     VALENCE
    1 S                 3.071       3.071       0.000
    2 O                 2.218       2.218       0.000
    3 O                 2.218       2.218       0.000

          ---------------------
          ELECTROSTATIC MOMENTS
          ---------------------

 POINT   1           X           Y           Z (BOHR)    CHARGE
                 0.000000    0.000000    0.000000        0.00 (A.U.)
         DX          DY          DZ         /D/  (DEBYE)
     0.000000    0.000000   -1.047999    1.047999
 ...... END OF PROPERTY EVALUATION ......
 STEP CPU TIME =     0.00 TOTAL CPU TIME =        3.8 (    0.1 MIN)
 TOTAL WALL CLOCK TIME=        3.8 SECONDS, CPU UTILIZATION IS  99.74%
               580000  WORDS OF DYNAMIC MEMORY USED
 EXECUTION OF GAMESS TERMINATED NORMALLY Thu Feb 26 00:22:12 2015
 DDI: 263624 bytes (0.3 MB / 0 MWords) used by master data server.

 ----------------------------------------
 CPU timing information for all processes
 ========================================
 0: 3.828 + 0.29 = 3.858
 ----------------------------------------
 ddikick.x: exited gracefully.
----- accounting info -----
Files used on the master node dftfe.crc.nd.edu were:
-rw-r--r-- 1 pmehta1 campus   37475 Feb 26 00:22 /tmp/gamess.dat
-rw-r--r-- 1 pmehta1 campus     142 Feb 26 00:22 /tmp/gamess.F05
-rw-r--r-- 1 pmehta1 campus 1800240 Feb 26 00:22 /tmp/gamess.F08
-rw-r--r-- 1 pmehta1 campus 1220440 Feb 26 00:22 /tmp/gamess.F10
Thu Feb 26 00:22:16 EST 2015
0.246u 0.180s 0:07.30 5.7%	0+0k 0+96io 0pf+0w
