----- GAMESS execution script 'rungms' -----
This job is running on host dftfe.crc.nd.edu
under operating system Linux at Thu Feb 26 00:21:29 EST 2015
Available scratch disk space (Kbyte units) at beginning of the job is
Filesystem     1K-blocks     Used Available Use% Mounted on
/dev/sda2      147771864 22817440 117447992  17% /
GAMESS temporary binary files will be written to /tmp
GAMESS supplementary output files will be written to /tmp
Copying input file gamess.inp to your run's scratch directory...

 Distributed Data Interface kickoff program.
 Initiating 1 compute processes on 1 nodes to run the following command:
 /opt/crc/gamess/2012R1/gamess/gamess.00.x gamess 

          ******************************************************
          *         GAMESS VERSION =  1 MAY 2012 (R1)          *
          *             FROM IOWA STATE UNIVERSITY             *
          * M.W.SCHMIDT, K.K.BALDRIDGE, J.A.BOATZ, S.T.ELBERT, *
          *   M.S.GORDON, J.H.JENSEN, S.KOSEKI, N.MATSUNAGA,   *
          *          K.A.NGUYEN, S.J.SU, T.L.WINDUS,           *
          *       TOGETHER WITH M.DUPUIS, J.A.MONTGOMERY       *
          *         J.COMPUT.CHEM.  14, 1347-1363(1993)        *
          **************** 64 BIT LINUX VERSION ****************

  SINCE 1993, STUDENTS AND POSTDOCS WORKING AT IOWA STATE UNIVERSITY
  AND ALSO IN THEIR VARIOUS JOBS AFTER LEAVING ISU HAVE MADE IMPORTANT
  CONTRIBUTIONS TO THE CODE:
     IVANA ADAMOVIC, CHRISTINE AIKENS, YURI ALEXEEV, POOJA ARORA,
     ANDREY ASADCHEV, ROB BELL, PRADIPTA BANDYOPADHYAY, JONATHAN BENTZ,
     BRETT BODE, GALINA CHABAN, WEI CHEN, CHEOL HO CHOI, PAUL DAY,
     ALBERT DEFUSCO, TIM DUDLEY, DMITRI FEDOROV, GRAHAM FLETCHER,
     MARK FREITAG, KURT GLAESEMANN, DAN KEMP, GRANT MERRILL,
     NORIYUKI MINEZAWA, JONATHAN MULLIN, TAKESHI NAGATA,
     SEAN NEDD, HEATHER NETZLOFF, BOSILJKA NJEGIC, RYAN OLSON, MIKE PAK,
     JIM SHOEMAKER, LYUDMILA SLIPCHENKO, SAROM SOK, JIE SONG,
     TETSUYA TAKETSUGU, SIMON WEBB, SOOHAENG YOO, FEDERICO ZAHARIEV

  ADDITIONAL CODE HAS BEEN PROVIDED BY COLLABORATORS IN OTHER GROUPS:
     IOWA STATE UNIVERSITY:
          JOE IVANIC, LAIMUTIS BYTAUTAS, KLAUS RUEDENBERG
     UNIVERSITY OF TOKYO: KIMIHIKO HIRAO, TAKAHITO NAKAJIMA,
          TAKAO TSUNEDA, MUNEAKI KAMIYA, SUSUMU YANAGISAWA,
          KIYOSHI YAGI, MAHITO CHIBA, SEIKEN TOKURA, NAOAKI KAWAKAMI
     UNIVERSITY OF AARHUS: FRANK JENSEN
     UNIVERSITY OF IOWA: VISVALDAS KAIRYS, HUI LI
     NATIONAL INST. OF STANDARDS AND TECHNOLOGY: WALT STEVENS, DAVID GARMER
     UNIVERSITY OF PISA: BENEDETTA MENNUCCI, JACOPO TOMASI
     UNIVERSITY OF MEMPHIS: HENRY KURTZ, PRAKASHAN KORAMBATH
     UNIVERSITY OF ALBERTA: TOBY ZENG, MARIUSZ KLOBUKOWSKI
     UNIVERSITY OF NEW ENGLAND: MARK SPACKMAN
     MIE UNIVERSITY: HIROAKI UMEDA
     MICHIGAN STATE UNIVERSITY:
          KAROL KOWALSKI, MARTA WLOCH, JEFFREY GOUR, JESSE LUTZ, PIOTR PIECUCH
     UNIVERSITY OF SILESIA: MONIKA MUSIAL, STANISLAW KUCHARSKI
     FACULTES UNIVERSITAIRES NOTRE-DAME DE LA PAIX:
          OLIVIER QUINET, BENOIT CHAMPAGNE
     UNIVERSITY OF CALIFORNIA - SANTA BARBARA: BERNARD KIRTMAN
     INSTITUTE FOR MOLECULAR SCIENCE:
          KAZUYA ISHIMURA, MICHIO KATOUDA, AND SHIGERU NAGASE
     UNIVERSITY OF NOTRE DAME: DAN CHIPMAN
     KYUSHU UNIVERSITY:
          HARUYUKI NAKANO,
          FENG LONG GU, JACEK KORCHOWIEC, MARCIN MAKOWSKI, AND YURIKO AOKI,
          HIROTOSHI MORI AND EISAKU MIYOSHI
     PENNSYLVANIA STATE UNIVERSITY:
          TZVETELIN IORDANOV, CHET SWALINA, JONATHAN SKONE,
          SHARON HAMMES-SCHIFFER
     WASEDA UNIVERSITY:
          MASATO KOBAYASHI, TOMOKO AKAMA, TSUGUKI TOUMA,
          TAKESHI YOSHIKAWA, YASUHIRO IKABATA, HIROMI NAKAI
     UNIVERSITY OF NEBRASKA:
          PEIFENG SU, DEJUN SI, NANDUN THELLAMUREGE, YALI WANG, HUI LI
     UNIVERSITY OF ZURICH:
          ROBERTO PEVERATI, KIM BALDRIDGE
     N. COPERNICUS UNIVERSITY AND JACKSON STATE UNIVERSITY:
          MARIA BARYSZ

 EXECUTION OF GAMESS BEGUN Thu Feb 26 00:21:29 2015

            ECHO OF THE FIRST FEW INPUT CARDS -
 INPUT CARD> $BASIS GBASIS=PC1 $END                                                         
 INPUT CARD> $CONTRL COORD=ZMT ISPHER=1 RUNTYP=ENERGY DFTTYP=PBE $END                       
 INPUT CARD>                                                                                
 INPUT CARD> $DATA                                                                          
 INPUT CARD>Title                                                                           
 INPUT CARD>Cnv 2                                                                           
 INPUT CARD>                                                                                
 INPUT CARD>S                                                                               
 INPUT CARD>O 1 1.90                                                                        
 INPUT CARD>O 1 1.90 2 100.0                                                                
 INPUT CARD> $END                                                                           
    1000000 WORDS OF MEMORY AVAILABLE

     BASIS OPTIONS
     -------------
     GBASIS=PC1          IGAUSS=       0      POLAR=NONE    
     NDFUNC=       0     NFFUNC=       0     DIFFSP=       F
     NPFUNC=       0      DIFFS=       F     BASNAM=        


     RUN TITLE
     ---------
 Title                                                                           

 THE POINT GROUP OF THE MOLECULE IS CNV     
 THE ORDER OF THE PRINCIPAL AXIS IS     2

 YOUR FULLY SUBSTITUTED Z-MATRIX IS
 S   
 O      1   1.9000000
 O      1   1.9000000  2  100.0000

 THE MOMENTS OF INERTIA ARE (AMU-ANGSTROM**2)
 IXX=    23.851   IYY=    67.768   IZZ=    91.619

 ATOM      ATOMIC                      COORDINATES (BOHR)
           CHARGE         X                   Y                   Z
 S          16.0     0.0000000000        0.0000000000       -1.1542780618
 O           8.0    -2.7504667746        0.0000000000        1.1536375944
 O           8.0     2.7504667746        0.0000000000        1.1536375944

          INTERNUCLEAR DISTANCES (ANGS.)
          ------------------------------

                1 S          2 O          3 O     

   1 S       0.0000000    1.9000000 *  1.9000000 *
   2 O       1.9000000 *  0.0000000    2.9109689 *
   3 O       1.9000000 *  2.9109689 *  0.0000000  

  * ... LESS THAN  3.000


     ATOMIC BASIS SET
     ----------------
 THE CONTRACTED PRIMITIVE FUNCTIONS HAVE BEEN UNNORMALIZED
 THE CONTRACTED BASIS FUNCTIONS ARE NOW NORMALIZED TO UNITY

  SHELL TYPE  PRIMITIVE        EXPONENT          CONTRACTION COEFFICIENT(S)

 S         

      1   S       1         55510.0000000    0.000587229760
      1   S       2          8326.7000000    0.004532413947
      1   S       3          1895.6000000    0.023265261648
      1   S       4           536.7700000    0.089696133027
      1   S       5           174.6700000    0.254098332277
      1   S       6            62.5780000    0.438665087637
      1   S       7            23.5730000    0.314547135094
      1   S       8             5.8908000    0.032727897102

      2   S       9          8326.7000000   -0.000019755715
      2   S      10          1895.6000000   -0.000043822381
      2   S      11           536.7700000   -0.001730264906
      2   S      12           174.6700000   -0.009381263460
      2   S      13            62.5780000   -0.064050766303
      2   S      14            23.5730000   -0.082478179196
      2   S      15             5.8908000    0.478342956889
      2   S      16             2.1852000    0.626896670208

      3   S      17          1895.6000000    0.000016227260
      3   S      18           536.7700000    0.000191135619
      3   S      19           174.6700000    0.001952069674
      3   S      20            62.5780000    0.010578701087
      3   S      21            23.5730000    0.022164934551
      3   S      22             5.8908000   -0.184968323118
      3   S      23             2.1852000   -0.480920750976
      3   S      24             0.4528200    1.243822243872

      4   S      25             0.1620200    1.000000000000

      5   P      26           395.4500000    0.004642761329
      5   P      27            92.8340000    0.036023396489
      5   P      28            29.2660000    0.149058869978
      5   P      29            10.5950000    0.360033266263
      5   P      30             4.0272000    0.455756476221
      5   P      31             1.5484000    0.206167664178

      6   P      32            92.8340000    0.000169901442
      6   P      33            29.2660000   -0.002541839934
      6   P      34            10.5950000   -0.007867614595
      6   P      35             4.0272000   -0.037231009184
      6   P      36             1.5484000    0.161417246830
      6   P      37             0.4613400    0.902230419976

      7   P      38             0.1313100    1.000000000000

      8   D      39             0.5500000    1.000000000000

 O         

     15   S      40          2306.7000000    0.005424388755
     15   S      41           347.1500000    0.040474749465
     15   S      42            78.8900000    0.180219634554
     15   S      43            21.8760000    0.462370311787
     15   S      44             6.6646000    0.454888396263

     16   S      45           347.1500000   -0.000655003786
     16   S      46            78.8900000   -0.005362052952
     16   S      47            21.8760000   -0.074902158894
     16   S      48             6.6646000   -0.181442579655
     16   S      49             1.0669000    1.102006874042

     17   S      50             0.3070000    1.000000000000

     18   P      51            17.0220000    0.068979967443
     18   P      52             3.6838000    0.351985516325
     18   P      53             0.9923400    0.724036547822

     19   P      54             0.2448700    1.000000000000

     20   D      55             1.0000000    1.000000000000

 TOTAL NUMBER OF BASIS SET SHELLS             =   20
 NUMBER OF CARTESIAN GAUSSIAN BASIS FUNCTIONS =   49
 NOTE: THIS RUN WILL RESTRICT THE MO VARIATION SPACE TO SPHERICAL HARMONICS.
 THE NUMBER OF ORBITALS KEPT IN THE VARIATIONAL SPACE WILL BE PRINTED LATER.
 NUMBER OF ELECTRONS                          =   32
 CHARGE OF MOLECULE                           =    0
 SPIN MULTIPLICITY                            =    1
 NUMBER OF OCCUPIED ORBITALS (ALPHA)          =   16
 NUMBER OF OCCUPIED ORBITALS (BETA )          =   16
 TOTAL NUMBER OF ATOMS                        =    3
 THE NUCLEAR REPULSION ENERGY IS       82.9340603356

     LEBEDEV GRID-BASED DFT OPTIONS
     ------------------------------
     DFTTYP=PBE     
     NRAD  =      96     NLEB  =     302
     NRAD0 =      24     NLEB0 =     110
     SWOFF =    5.00E-03 (PURE SCF -> DFT)
     SWITCH=    3.00E-04 (COARSE -> TIGHT GRID)
     THRESH=    0.00E+00 GTHRE=    1.00E+00

 GRIMME'S EMPIRICAL DISPERSION CORRECTION= F

     $CONTRL OPTIONS
     ---------------
 SCFTYP=RHF          RUNTYP=ENERGY       EXETYP=RUN     
 MPLEVL=       0     CITYP =NONE         CCTYP =NONE         VBTYP =NONE    
 DFTTYP=PBE          TDDFT =NONE    
 MULT  =       1     ICHARG=       0     NZVAR =       0     COORD =ZMT     
 PP    =NONE         RELWFN=NONE         LOCAL =NONE         NUMGRD=       F
 ISPHER=       1     NOSYM =       0     MAXIT =      30     UNITS =ANGS    
 PLTORB=       F     MOLPLT=       F     AIMPAC=       F     FRIEND=        
 NPRINT=       7     IREST =       0     GEOM  =INPUT   
 NORMF =       0     NORMP =       0     ITOL  =      20     ICUT  =       9
 INTTYP=BEST         GRDTYP=BEST         QMTTOL= 1.0E-06

     $SYSTEM OPTIONS
     ---------------
  REPLICATED MEMORY=     1000000 WORDS (ON EVERY NODE).
 DISTRIBUTED MEMDDI=           0 MILLION WORDS IN AGGREGATE,
 MEMDDI DISTRIBUTED OVER   1 PROCESSORS IS           0 WORDS/PROCESSOR.
 TOTAL MEMORY REQUESTED ON EACH PROCESSOR=     1000000 WORDS.
 TIMLIM=      525600.00 MINUTES, OR     365.0 DAYS.
 PARALL= F  BALTYP=  DLB     KDIAG=    0  COREFL= F
 MXSEQ2=     300 MXSEQ3=     150

          ----------------
          PROPERTIES INPUT
          ----------------

     MOMENTS            FIELD           POTENTIAL          DENSITY
 IEMOM =       1   IEFLD =       0   IEPOT =       0   IEDEN =       0
 WHERE =COMASS     WHERE =NUCLEI     WHERE =NUCLEI     WHERE =NUCLEI  
 OUTPUT=BOTH       OUTPUT=BOTH       OUTPUT=BOTH       OUTPUT=BOTH    
 IEMINT=       0   IEFINT=       0                     IEDINT=       0
                                                       MORB  =       0
          EXTRAPOLATION IN EFFECT
          DIIS IN EFFECT
 ORBITAL PRINTING OPTION: NPREO=     1    49     2     1

     -------------------------------
     INTEGRAL TRANSFORMATION OPTIONS
     -------------------------------
     NWORD  =            0
     CUTOFF = 1.0E-09     MPTRAN =       0
     DIRTRF =       F     AOINTS =DUP     

          ----------------------
          INTEGRAL INPUT OPTIONS
          ----------------------
 NOPK  =       1 NORDER=       0 SCHWRZ=       F

   --- ENCODED Z MATRIX ---
 COORD  TYPE   I   J   K   L   M   N
    1      1    3   1
    2      1    2   1
    3      2    2   1   3

 THE DETERMINANT OF THE G MATRIX IS 10**(    -4)

 THE DETERMINANT OF THE G MATRIX IS 10**(    -4)
 * * * WARNING * * *
 YOUR B MATRIX HAS A SMALL DETERMINANT.
 THIS SUGGESTS YOU MAY HAVE BADLY CHOSEN COORDINATES.

     ------------------------------------------
     THE POINT GROUP IS CNV, NAXIS= 2, ORDER= 4
     ------------------------------------------

 -- VARIATIONAL SPACE WILL BE RESTRICTED TO PURE SPHERICAL HARMONICS ONLY --
 AFTER EXCLUDING CONTAMINANT COMBINATIONS FROM THE CARTESIAN GAUSSIAN BASIS
 SET, THE NUMBER OF SPHERICAL HARMONICS KEPT IN THE VARIATION SPACE IS   46

     DIMENSIONS OF THE SYMMETRY SUBSPACES ARE
 A1  =   19     A2  =    5     B1  =   14     B2  =    8

 ..... DONE SETTING UP THE RUN .....
 STEP CPU TIME =     0.01 TOTAL CPU TIME =        0.0 (    0.0 MIN)
 TOTAL WALL CLOCK TIME=        0.0 SECONDS, CPU UTILIZATION IS  50.00%

          ********************
          1 ELECTRON INTEGRALS
          ********************
 ...... END OF ONE-ELECTRON INTEGRALS ......
 STEP CPU TIME =     0.01 TOTAL CPU TIME =        0.0 (    0.0 MIN)
 TOTAL WALL CLOCK TIME=        0.0 SECONDS, CPU UTILIZATION IS 100.00%

          -------------
          GUESS OPTIONS
          -------------
          GUESS =HUCKEL            NORB  =       0          NORDER=       0
          MIX   =       F          PRTMO =       F          PUNMO =       F
          TOLZ  = 1.0E-08          TOLE  = 1.0E-05
          SYMDEN=       F          PURIFY=       F

 INITIAL GUESS ORBITALS GENERATED BY HUCKEL   ROUTINE.
 HUCKEL GUESS REQUIRES     21583 WORDS.

 STATISTICS FOR GENERATION OF SYMMETRY ORBITAL -Q- MATRIX
 NUMBER OF CARTESIAN ATOMIC ORBITALS=         49
 NUMBER OF SPHERICAL CONTAMINANTS DROPPED=     3
 NUMBER OF LINEARLY DEPENDENT MOS DROPPED=     0
 TOTAL NUMBER OF MOS IN VARIATION SPACE=      46

 SYMMETRIES FOR INITIAL GUESS ORBITALS FOLLOW.   BOTH SET(S).
    16 ORBITALS ARE OCCUPIED (    7 CORE ORBITALS).
     8=A1       9=?B1     10=?A1     11=B1      12=B2      13=A1      14=A2  
    15=B1      16=?A1     17=B2      18=B1      19=A1      20=A1      21=A1  
    22=A1      23=A1      24=A1      25=A1      26=A1  
 ...... END OF INITIAL ORBITAL SELECTION ......
 STEP CPU TIME =     0.00 TOTAL CPU TIME =        0.0 (    0.0 MIN)
 TOTAL WALL CLOCK TIME=        0.0 SECONDS, CPU UTILIZATION IS  66.67%

                    ----------------------
                    AO INTEGRAL TECHNOLOGY
                    ----------------------
     S,P,L SHELL ROTATED AXIS INTEGRALS, REPROGRAMMED BY
        KAZUYA ISHIMURA (IMS) AND JOSE SIERRA (SYNSTAR).
     S,P,D,L SHELL ROTATED AXIS INTEGRALS PROGRAMMED BY
        KAZUYA ISHIMURA (INSTITUTE FOR MOLECULAR SCIENCE).
     S,P,D,F,G SHELL TO TOTAL QUARTET ANGULAR MOMENTUM SUM 5,
        ERIC PROGRAM BY GRAHAM FLETCHER (ELORET AND NASA ADVANCED
        SUPERCOMPUTING DIVISION, AMES RESEARCH CENTER).
     S,P,D,F,G,L SHELL GENERAL RYS QUADRATURE PROGRAMMED BY
        MICHEL DUPUIS (PACIFIC NORTHWEST NATIONAL LABORATORY).

          --------------------
          2 ELECTRON INTEGRALS
          --------------------

 THE -PK- OPTION IS OFF, THE INTEGRALS ARE NOT IN SUPERMATRIX FORM.
 STORING   15000 INTEGRALS/RECORD ON DISK, USING 12 BYTES/INTEGRAL.
 TWO ELECTRON INTEGRAL EVALUATION REQUIRES   90606 WORDS OF MEMORY.
 II,JST,KST,LST =  1  1  1  1 NREC =         1 INTLOC =    1
 II,JST,KST,LST =  2  1  1  1 NREC =         1 INTLOC =    2
 II,JST,KST,LST =  3  1  1  1 NREC =         1 INTLOC =    7
 II,JST,KST,LST =  4  1  1  1 NREC =         1 INTLOC =   22
 II,JST,KST,LST =  5  1  1  1 NREC =         1 INTLOC =   56
 II,JST,KST,LST =  6  1  1  1 NREC =         1 INTLOC =  125
 II,JST,KST,LST =  7  1  1  1 NREC =         1 INTLOC =  329
 II,JST,KST,LST =  8  1  1  1 NREC =         1 INTLOC =  776
 II,JST,KST,LST =  9  1  1  1 NREC =         1 INTLOC = 2864
 II,JST,KST,LST = 10  1  1  1 NREC =         1 INTLOC = 2864
 II,JST,KST,LST = 11  1  1  1 NREC =         1 INTLOC = 2864
 II,JST,KST,LST = 12  1  1  1 NREC =         1 INTLOC = 2864
 II,JST,KST,LST = 13  1  1  1 NREC =         1 INTLOC = 2864
 II,JST,KST,LST = 14  1  1  1 NREC =         1 INTLOC = 2864
 II,JST,KST,LST = 15  1  1  1 NREC =         1 INTLOC = 2864
 II,JST,KST,LST = 16  1  1  1 NREC =         1 INTLOC = 4787
 II,JST,KST,LST = 17  1  1  1 NREC =         1 INTLOC = 7845
 II,JST,KST,LST = 18  1  1  1 NREC =         1 INTLOC =12193
 II,JST,KST,LST = 19  1  1  1 NREC =         2 INTLOC =13795
 II,JST,KST,LST = 20  1  1  1 NREC =         4 INTLOC =14351
 TOTAL NUMBER OF NONZERO TWO-ELECTRON INTEGRALS =              167227
         12 INTEGRAL RECORDS WERE STORED ON DISK FILE  8.
  ...... END OF TWO-ELECTRON INTEGRALS .....
 STEP CPU TIME =     0.15 TOTAL CPU TIME =        0.2 (    0.0 MIN)
 TOTAL WALL CLOCK TIME=        0.2 SECONDS, CPU UTILIZATION IS  94.44%

          --------------------------
               R-PBE SCF CALCULATION
          --------------------------

     NUCLEAR ENERGY =        82.9340603356
     MAXIT =   30     NPUNCH=    2
     EXTRAP=T  DAMP=F  SHIFT=F  RSTRCT=F  DIIS=T  DEM=F  SOSCF=F
         DENSITY MATRIX CONVERGENCE THRESHOLD=  1.00E-05
     COARSE -> FINE DFT GRID SWITCH THRESHOLD=  3.00E-04 (SWITCH IN $DFT)
                   HF -> DFT SWITCH THRESHOLD=  5.00E-03 (SWOFF IN $DFT)
     MEMORY REQUIRED FOR RHF ITERS=    183108 WORDS.

 DFT CODE IS SWITCHING FROM THE FINE GRID NRAD= 96,  NLEB=  302
                      TO THE COARSE GRID NRAD0= 24, NLEB0=  110

     EXCHANGE FUNCTIONAL   =PBE       
     CORRELATION FUNCTIONAL=PBE       
     DFT THRESHOLD         =.460E-07
     GRID CHANGE THRESHOLD =.300E-03
 FOR AN EULER-MACLAURIN QUADRATURE USING  96 RADIAL POINTS:
 SMALLEST GAUSSIAN PRIMITIVE EXPONENT=        0.1313100000 OF TYPE -P-
 ON ATOM NUMBER   1 HAS RADIAL NORMALIZATION=  1.000000
  LARGEST GAUSSIAN PRIMITIVE EXPONENT=    55510.0000000000 OF TYPE -S-
 ON ATOM NUMBER   1 HAS RADIAL NORMALIZATION=  0.999999
 DFT IS SWITCHED OFF, PERFORMING PURE SCF UNTIL SWOFF THRESHOLD IS REACHED.

 ITER EX DEM     TOTAL ENERGY        E CHANGE  DENSITY CHANGE    DIIS ERROR
   1  0  0     -545.6804253179  -545.6804253179   0.758905179   0.894942983
   2  1  0     -545.5540144616     0.1264108563   0.893709296   0.721436285
   3  2  0     -544.7810689214     0.7729455402   1.295191936   0.732322116
   4  3  0     -541.5327249237     3.2483439977   1.466607761   1.719848253
   5  0  0     -541.1008180100     0.4319069137   0.778565082   1.107052582
          * * *   INITIATING DIIS PROCEDURE   * * *
   6  1  0     -546.4176691280    -5.3168511181   0.683965980   0.309339829
   7  2  0     -545.9748771922     0.4427919358   0.430668224   0.545977519
   8  3  0     -546.8268183219    -0.8519411296   0.042081600   0.058478247
   9  4  0     -546.8429020140    -0.0160836922   0.029869927   0.026857842
  10  5  0     -546.8473692031    -0.0044671891   0.016739180   0.009515386
  11  6  0     -546.8483790525    -0.0010098494   0.023237442   0.006497121
  12  7  0     -546.8492858492    -0.0009067967   0.028253436   0.004440550
  13  8  0     -546.8498330445    -0.0005471953   0.009998285   0.002298410
  14  9  0     -546.8499040291    -0.0000709846   0.002467583   0.000906152
 CONVERGED TO SWOFF, SO DFT CALCULATION IS NOW SWITCHED ON.
          * * *   INITIATING DIIS PROCEDURE   * * *
  15 10  0     -548.0389926272    -1.1890885980   0.564959234   0.096652840
  16 11  0     -548.0133480046     0.0256446225   0.452494185   0.203784631
  17 12  0     -547.9385832916     0.0747647131   0.159950835   0.316522536
  18 13  0     -548.1293189949    -0.1907357034   0.030595327   0.020758875
  19 14  0     -548.1311301670    -0.0018111720   0.003163132   0.004997717
  20 15  0     -548.1311865023    -0.0000563353   0.000416356   0.000470035
  21 16  0     -548.1311867320    -0.0000002296   0.000252271   0.000377579
 DFT CODE IS SWITCHING BACK TO THE FINE GRID
          * * *   INITIATING DIIS PROCEDURE   * * *
  22 17  0     -548.1131384777     0.0180482543   0.005225822   0.006823959
  23 18  0     -548.1132691846    -0.0001307069   0.008710717   0.003840656
  24 19  0     -548.1130639119     0.0002052727   0.010588830   0.010895736
  25 20  0     -548.1132827285    -0.0002188166   0.002656331   0.002459081
  26 21  0     -548.1132983701    -0.0000156416   0.000198844   0.000142814
  27 22  0     -548.1132984542    -0.0000000842   0.000010955   0.000016912
  28 23  0     -548.1132984549    -0.0000000007   0.000002174   0.000001314
  29 24  0     -548.1132984549     0.0000000000   0.000001316   0.000000973

          -----------------
          DENSITY CONVERGED
          -----------------
     TIME TO FORM FOCK OPERATORS=       4.1 SECONDS (       0.1 SEC/ITER)
     TIME TO SOLVE SCF EQUATIONS=       0.0 SECONDS (       0.0 SEC/ITER)

 FINAL R-PBE ENERGY IS     -548.1132984549 AFTER  29 ITERATIONS
 DFT EXCHANGE + CORRELATION ENERGY =       -42.1252984230
 TOTAL ELECTRON NUMBER             =        32.0000044071

          ------------
          EIGENVECTORS
          ------------

                      1          2          3          4          5
                  -88.2211   -18.8303   -18.8303    -7.8430    -5.8640
                     A1         A1         B1         A1         B1  
    1  S  1  S    1.002978  -0.000096   0.000000  -0.274118   0.000000
    2  S  1  S   -0.010250  -0.001274   0.000000   1.039758   0.000000
    3  S  1  S    0.001820  -0.002622   0.000000   0.040801   0.000000
    4  S  1  S   -0.001086   0.007122   0.000000  -0.013605   0.000000
    5  S  1  X    0.000000   0.000000   0.000102   0.000000   0.996877
    6  S  1  Y    0.000000   0.000000   0.000000   0.000000   0.000000
    7  S  1  Z    0.000049  -0.000092   0.000000   0.006413   0.000000
    8  S  1  X    0.000000   0.000000  -0.000401   0.000000   0.008965
    9  S  1  Y    0.000000   0.000000   0.000000   0.000000   0.000000
   10  S  1  Z    0.000012   0.000267   0.000000   0.000376   0.000000
   11  S  1  X    0.000000   0.000000  -0.003131   0.000000  -0.000150
   12  S  1  Y    0.000000   0.000000   0.000000   0.000000   0.000000
   13  S  1  Z   -0.000142   0.003776   0.000000  -0.001227   0.000000
   14  S  1 XX   -0.000018   0.000765   0.000000   0.000010   0.000000
   15  S  1 YY    0.000032  -0.001152   0.000000   0.000118   0.000000
   16  S  1 ZZ   -0.000014   0.000386   0.000000  -0.000128   0.000000
   17  S  1 XY    0.000000   0.000000   0.000000   0.000000   0.000000
   18  S  1 XZ    0.000000   0.000000  -0.001381   0.000000   0.000268
   19  S  1 YZ    0.000000   0.000000   0.000000   0.000000   0.000000
   20  O  2  S   -0.000004   0.703250   0.703208  -0.000017   0.000012
   21  O  2  S   -0.000046   0.025050   0.024580  -0.000264   0.000024
   22  O  2  S    0.000179  -0.010562  -0.009237   0.001467   0.000029
   23  O  2  X    0.000005   0.000625   0.000558  -0.000001   0.000032
   24  O  2  Y    0.000000   0.000000   0.000000   0.000000   0.000000
   25  O  2  Z   -0.000010  -0.000491  -0.000549  -0.000051  -0.000026
   26  O  2  X    0.000054  -0.002306  -0.001279   0.000311  -0.000013
   27  O  2  Y    0.000000   0.000000   0.000000   0.000000   0.000000
   28  O  2  Z   -0.000017   0.001409   0.001468  -0.000005  -0.000015
   29  O  2 XX   -0.000007  -0.000223  -0.000049  -0.000154  -0.000026
   30  O  2 YY    0.000015   0.000182   0.000152   0.000245   0.000018
   31  O  2 ZZ   -0.000008   0.000041  -0.000103  -0.000091   0.000008
   32  O  2 XY    0.000000   0.000000   0.000000   0.000000   0.000000
   33  O  2 XZ    0.000026   0.000266   0.000210   0.000420   0.000027
   34  O  2 YZ    0.000000   0.000000   0.000000   0.000000   0.000000
   35  O  3  S   -0.000004   0.703250  -0.703208  -0.000017  -0.000012
   36  O  3  S   -0.000046   0.025050  -0.024580  -0.000264  -0.000024
   37  O  3  S    0.000179  -0.010562   0.009237   0.001467  -0.000029
   38  O  3  X   -0.000005  -0.000625   0.000558   0.000001   0.000032
   39  O  3  Y    0.000000   0.000000   0.000000   0.000000   0.000000
   40  O  3  Z   -0.000010  -0.000491   0.000549  -0.000051   0.000026
   41  O  3  X   -0.000054   0.002306  -0.001279  -0.000311  -0.000013
   42  O  3  Y    0.000000   0.000000   0.000000   0.000000   0.000000
   43  O  3  Z   -0.000017   0.001409  -0.001468  -0.000005   0.000015
   44  O  3 XX   -0.000007  -0.000223   0.000049  -0.000154   0.000026
   45  O  3 YY    0.000015   0.000182  -0.000152   0.000245  -0.000018
   46  O  3 ZZ   -0.000008   0.000041   0.000103  -0.000091  -0.000008
   47  O  3 XY    0.000000   0.000000   0.000000   0.000000   0.000000
   48  O  3 XZ   -0.000026  -0.000266   0.000210  -0.000420   0.000027
   49  O  3 YZ    0.000000   0.000000   0.000000   0.000000   0.000000

                      6          7          8          9         10
                   -5.8609    -5.8608    -0.8981    -0.8587    -0.6717
                     B2         A1         A1         B1         A1  
    1  S  1  S    0.000000   0.001694   0.037671   0.000000   0.078005
    2  S  1  S    0.000000  -0.006744  -0.111488   0.000000  -0.224883
    3  S  1  S    0.000000  -0.000624   0.221299   0.000000   0.482130
    4  S  1  S    0.000000   0.000249   0.183695   0.000000   0.465672
    5  S  1  X    0.000000   0.000000   0.000000   0.052402   0.000000
    6  S  1  Y    0.996921   0.000000   0.000000   0.000000   0.000000
    7  S  1  Z    0.000000   0.996907  -0.036718   0.000000   0.022371
    8  S  1  X    0.000000   0.000000   0.000000  -0.107931   0.000000
    9  S  1  Y    0.008848   0.000000   0.000000   0.000000   0.000000
   10  S  1  Z    0.000000   0.008807   0.075342   0.000000  -0.046121
   11  S  1  X    0.000000   0.000000   0.000000  -0.031026   0.000000
   12  S  1  Y   -0.000184   0.000000   0.000000   0.000000   0.000000
   13  S  1  Z    0.000000  -0.000123   0.015585   0.000000  -0.037807
   14  S  1 XX    0.000000  -0.000120   0.014273   0.000000  -0.003044
   15  S  1 YY    0.000000  -0.000138  -0.017746   0.000000   0.005829
   16  S  1 ZZ    0.000000   0.000258   0.003473   0.000000  -0.002784
   17  S  1 XY    0.000000   0.000000   0.000000   0.000000   0.000000
   18  S  1 XZ    0.000000   0.000000   0.000000  -0.034189   0.000000
   19  S  1 YZ    0.000210   0.000000   0.000000   0.000000   0.000000
   20  O  2  S    0.000000  -0.000012  -0.137025  -0.157444   0.084360
   21  O  2  S    0.000000  -0.000041   0.275451   0.320435  -0.176912
   22  O  2  S    0.000000  -0.000003   0.346553   0.408783  -0.252743
   23  O  2  X    0.000000  -0.000024   0.049348   0.035370   0.054705
   24  O  2  Y    0.000003   0.000000   0.000000   0.000000   0.000000
   25  O  2  Z    0.000000   0.000032  -0.040951  -0.036194  -0.048754
   26  O  2  X    0.000000  -0.000004   0.026329   0.020033   0.024534
   27  O  2  Y   -0.000039   0.000000   0.000000   0.000000   0.000000
   28  O  2  Z    0.000000  -0.000069  -0.023179  -0.021909  -0.021199
   29  O  2 XX    0.000000  -0.000003   0.003208   0.001104   0.002121
   30  O  2 YY    0.000000  -0.000029  -0.003237  -0.001519  -0.003722
   31  O  2 ZZ    0.000000   0.000032   0.000029   0.000416   0.001602
   32  O  2 XY   -0.000023   0.000000   0.000000   0.000000   0.000000
   33  O  2 XZ    0.000000  -0.000056  -0.009823  -0.008560  -0.003663
   34  O  2 YZ    0.000018   0.000000   0.000000   0.000000   0.000000
   35  O  3  S    0.000000  -0.000012  -0.137025   0.157444   0.084360
   36  O  3  S    0.000000  -0.000041   0.275451  -0.320435  -0.176912
   37  O  3  S    0.000000  -0.000003   0.346553  -0.408783  -0.252743
   38  O  3  X    0.000000   0.000024  -0.049348   0.035370  -0.054705
   39  O  3  Y    0.000003   0.000000   0.000000   0.000000   0.000000
   40  O  3  Z    0.000000   0.000032  -0.040951   0.036194  -0.048754
   41  O  3  X    0.000000   0.000004  -0.026329   0.020033  -0.024534
   42  O  3  Y   -0.000039   0.000000   0.000000   0.000000   0.000000
   43  O  3  Z    0.000000  -0.000069  -0.023179   0.021909  -0.021199
   44  O  3 XX    0.000000  -0.000003   0.003208  -0.001104   0.002121
   45  O  3 YY    0.000000  -0.000029  -0.003237   0.001519  -0.003722
   46  O  3 ZZ    0.000000   0.000032   0.000029  -0.000416   0.001602
   47  O  3 XY    0.000023   0.000000   0.000000   0.000000   0.000000
   48  O  3 XZ    0.000000   0.000056   0.009823  -0.008560   0.003663
   49  O  3 YZ    0.000018   0.000000   0.000000   0.000000   0.000000

                     11         12         13         14         15
                   -0.4092    -0.3910    -0.3679    -0.2927    -0.2850
                     B1         A1         B2         A2         A1  
    1  S  1  S    0.000000  -0.010299   0.000000   0.000000   0.009723
    2  S  1  S    0.000000   0.046383   0.000000   0.000000  -0.035089
    3  S  1  S    0.000000  -0.043732   0.000000   0.000000   0.054154
    4  S  1  S    0.000000  -0.195290   0.000000   0.000000   0.145854
    5  S  1  X   -0.193176   0.000000   0.000000   0.000000   0.000000
    6  S  1  Y    0.000000   0.000000  -0.219762   0.000000   0.000000
    7  S  1  Z    0.000000  -0.211690   0.000000   0.000000   0.028623
    8  S  1  X    0.455135   0.000000   0.000000   0.000000   0.000000
    9  S  1  Y    0.000000   0.000000   0.519533   0.000000   0.000000
   10  S  1  Z    0.000000   0.499445   0.000000   0.000000  -0.071843
   11  S  1  X    0.211917   0.000000   0.000000   0.000000   0.000000
   12  S  1  Y    0.000000   0.000000   0.357998   0.000000   0.000000
   13  S  1  Z    0.000000   0.267794   0.000000   0.000000   0.003204
   14  S  1 XX    0.000000   0.002133   0.000000   0.000000  -0.072469
   15  S  1 YY    0.000000  -0.019112   0.000000   0.000000   0.021476
   16  S  1 ZZ    0.000000   0.016979   0.000000   0.000000   0.050993
   17  S  1 XY    0.000000   0.000000   0.000000  -0.054360   0.000000
   18  S  1 XZ    0.036666   0.000000   0.000000   0.000000   0.000000
   19  S  1 YZ    0.000000   0.000000   0.021896   0.000000   0.000000
   20  O  2  S   -0.042558   0.029592   0.000000   0.000000  -0.000801
   21  O  2  S    0.090377  -0.063702   0.000000   0.000000   0.004938
   22  O  2  S    0.160396  -0.112030   0.000000   0.000000  -0.013164
   23  O  2  X   -0.208710   0.288479   0.000000   0.000000   0.145223
   24  O  2  Y    0.000000   0.000000   0.266351   0.480918   0.000000
   25  O  2  Z    0.263979  -0.084666   0.000000   0.000000   0.445057
   26  O  2  X   -0.130225   0.184870   0.000000   0.000000   0.102517
   27  O  2  Y    0.000000   0.000000   0.168383   0.336340   0.000000
   28  O  2  Z    0.162505  -0.056502   0.000000   0.000000   0.324584
   29  O  2 XX   -0.000852   0.010530   0.000000   0.000000   0.007435
   30  O  2 YY    0.007113  -0.006179   0.000000   0.000000   0.002431
   31  O  2 ZZ   -0.006260  -0.004351   0.000000   0.000000  -0.009866
   32  O  2 XY    0.000000   0.000000   0.009064   0.007213   0.000000
   33  O  2 XZ    0.011340  -0.007899   0.000000   0.000000   0.005556
   34  O  2 YZ    0.000000   0.000000  -0.007793  -0.007556   0.000000
   35  O  3  S    0.042558   0.029592   0.000000   0.000000  -0.000801
   36  O  3  S   -0.090377  -0.063702   0.000000   0.000000   0.004938
   37  O  3  S   -0.160396  -0.112030   0.000000   0.000000  -0.013164
   38  O  3  X   -0.208710  -0.288479   0.000000   0.000000  -0.145223
   39  O  3  Y    0.000000   0.000000   0.266351  -0.480918   0.000000
   40  O  3  Z   -0.263979  -0.084666   0.000000   0.000000   0.445057
   41  O  3  X   -0.130225  -0.184870   0.000000   0.000000  -0.102517
   42  O  3  Y    0.000000   0.000000   0.168383  -0.336340   0.000000
   43  O  3  Z   -0.162505  -0.056502   0.000000   0.000000   0.324584
   44  O  3 XX    0.000852   0.010530   0.000000   0.000000   0.007435
   45  O  3 YY   -0.007113  -0.006179   0.000000   0.000000   0.002431
   46  O  3 ZZ    0.006260  -0.004351   0.000000   0.000000  -0.009866
   47  O  3 XY    0.000000   0.000000  -0.009064   0.007213   0.000000
   48  O  3 XZ    0.011340   0.007899   0.000000   0.000000  -0.005556
   49  O  3 YZ    0.000000   0.000000  -0.007793   0.007556   0.000000

                     16         17         18         19         20
                   -0.2691    -0.2456    -0.1514    -0.1403     0.3267
                     B1         B2         B1         A1         B1  
    1  S  1  S    0.000000   0.000000   0.000000   0.027942   0.000000
    2  S  1  S    0.000000   0.000000   0.000000  -0.069028   0.000000
    3  S  1  S    0.000000   0.000000   0.000000   0.201852   0.000000
    4  S  1  S    0.000000   0.000000   0.000000   0.294151   0.000000
    5  S  1  X   -0.018886   0.000000  -0.216764   0.000000   0.271180
    6  S  1  Y    0.000000  -0.185841   0.000000   0.000000   0.000000
    7  S  1  Z    0.000000   0.000000   0.000000  -0.198099   0.000000
    8  S  1  X    0.038312   0.000000   0.542533   0.000000  -1.052454
    9  S  1  Y    0.000000   0.459734   0.000000   0.000000   0.000000
   10  S  1  Z    0.000000   0.000000   0.000000   0.499401   0.000000
   11  S  1  X    0.122366   0.000000   0.577413   0.000000   1.363835
   12  S  1  Y    0.000000   0.326422   0.000000   0.000000   0.000000
   13  S  1  Z    0.000000   0.000000   0.000000   0.523976   0.000000
   14  S  1 XX    0.000000   0.000000   0.000000  -0.040463   0.000000
   15  S  1 YY    0.000000   0.000000   0.000000   0.085493   0.000000
   16  S  1 ZZ    0.000000   0.000000   0.000000  -0.045030   0.000000
   17  S  1 XY    0.000000   0.000000   0.000000   0.000000   0.000000
   18  S  1 XZ   -0.049229   0.000000  -0.119829   0.000000  -0.207493
   19  S  1 YZ    0.000000  -0.041771   0.000000   0.000000   0.000000
   20  O  2  S   -0.003556   0.000000  -0.027052   0.030193  -0.010878
   21  O  2  S    0.004710   0.000000   0.047147  -0.055967  -0.033693
   22  O  2  S    0.037561   0.000000   0.204613  -0.205826   0.353561
   23  O  2  X    0.414565   0.000000   0.137234  -0.367998  -0.190641
   24  O  2  Y    0.000000  -0.406417   0.000000   0.000000   0.000000
   25  O  2  Z    0.252363   0.000000  -0.337856   0.139219   0.052999
   26  O  2  X    0.290901   0.000000   0.129614  -0.318600   0.109243
   27  O  2  Y    0.000000  -0.297281   0.000000   0.000000   0.000000
   28  O  2  Z    0.160793   0.000000  -0.280072   0.115568  -0.170081
   29  O  2 XX    0.008088   0.000000   0.002261   0.002631   0.016989
   30  O  2 YY   -0.000875   0.000000   0.000362   0.000219  -0.020076
   31  O  2 ZZ   -0.007212   0.000000  -0.002623  -0.002850   0.003086
   32  O  2 XY    0.000000  -0.001716   0.000000   0.000000   0.000000
   33  O  2 XZ   -0.003285   0.000000  -0.000475  -0.000680  -0.036708
   34  O  2 YZ    0.000000   0.001417   0.000000   0.000000   0.000000
   35  O  3  S    0.003556   0.000000   0.027052   0.030193   0.010878
   36  O  3  S   -0.004710   0.000000  -0.047147  -0.055967   0.033693
   37  O  3  S   -0.037561   0.000000  -0.204613  -0.205826  -0.353561
   38  O  3  X    0.414565   0.000000   0.137234   0.367998  -0.190641
   39  O  3  Y    0.000000  -0.406417   0.000000   0.000000   0.000000
   40  O  3  Z   -0.252363   0.000000   0.337856   0.139219  -0.052999
   41  O  3  X    0.290901   0.000000   0.129614   0.318600   0.109243
   42  O  3  Y    0.000000  -0.297281   0.000000   0.000000   0.000000
   43  O  3  Z   -0.160793   0.000000   0.280072   0.115568   0.170081
   44  O  3 XX   -0.008088   0.000000  -0.002261   0.002631  -0.016989
   45  O  3 YY    0.000875   0.000000  -0.000362   0.000219   0.020076
   46  O  3 ZZ    0.007212   0.000000   0.002623  -0.002850  -0.003086
   47  O  3 XY    0.000000   0.001716   0.000000   0.000000   0.000000
   48  O  3 XZ   -0.003285   0.000000  -0.000475   0.000680  -0.036708
   49  O  3 YZ    0.000000   0.001417   0.000000   0.000000   0.000000

                     21         22         23         24         25
                    0.3417     0.3668     0.4156     0.4625     0.4712
                     A1         B2         A1         A1         A2  
    1  S  1  S    0.015886   0.000000  -0.099669   0.015421   0.000000
    2  S  1  S   -0.012032   0.000000  -0.373270   0.057565   0.000000
    3  S  1  S    0.157222   0.000000  -1.558328   0.241006   0.000000
    4  S  1  S    0.099704   0.000000   1.886793  -0.291380   0.000000
    5  S  1  X    0.000000   0.000000   0.000000   0.000000   0.000000
    6  S  1  Y    0.000000   0.297711   0.000000   0.000000   0.000000
    7  S  1  Z    0.275789   0.000000  -0.014769   0.038404   0.000000
    8  S  1  X    0.000000   0.000000   0.000000   0.000000   0.000000
    9  S  1  Y    0.000000  -1.147114   0.000000   0.000000   0.000000
   10  S  1  Z   -1.072496   0.000000   0.035079  -0.138508   0.000000
   11  S  1  X    0.000000   0.000000   0.000000   0.000000   0.000000
   12  S  1  Y    0.000000   1.212087   0.000000   0.000000   0.000000
   13  S  1  Z    1.364822   0.000000   0.214748   0.047937   0.000000
   14  S  1 XX    0.011057   0.000000  -0.384418  -0.606795   0.000000
   15  S  1 YY    0.170268   0.000000   0.474996  -0.191858   0.000000
   16  S  1 ZZ   -0.181325   0.000000  -0.090578   0.798653   0.000000
   17  S  1 XY    0.000000   0.000000   0.000000   0.000000   0.902236
   18  S  1 XZ    0.000000   0.000000   0.000000   0.000000   0.000000
   19  S  1 YZ    0.000000  -0.133937   0.000000   0.000000   0.000000
   20  O  2  S    0.013286   0.000000   0.018782  -0.004401   0.000000
   21  O  2  S    0.021659   0.000000  -0.042294   0.014052   0.000000
   22  O  2  S   -0.320379   0.000000  -0.220192   0.021868   0.000000
   23  O  2  X    0.086222   0.000000   0.012034  -0.205616   0.000000
   24  O  2  Y    0.000000  -0.083796   0.000000   0.000000   0.267111
   25  O  2  Z   -0.110802   0.000000  -0.103307  -0.261579   0.000000
   26  O  2  X   -0.224271   0.000000  -0.154300   0.165989   0.000000
   27  O  2  Y    0.000000  -0.079647   0.000000   0.000000  -0.182096
   28  O  2  Z    0.055049   0.000000   0.156150   0.140834   0.000000
   29  O  2 XX   -0.017798   0.000000  -0.008038   0.041078   0.000000
   30  O  2 YY    0.017056   0.000000   0.025162  -0.002695   0.000000
   31  O  2 ZZ    0.000742   0.000000  -0.017124  -0.038383   0.000000
   32  O  2 XY    0.000000  -0.005217   0.000000   0.000000  -0.027040
   33  O  2 XZ    0.021626   0.000000   0.034911   0.011012   0.000000
   34  O  2 YZ    0.000000   0.002822   0.000000   0.000000   0.031511
   35  O  3  S    0.013286   0.000000   0.018782  -0.004401   0.000000
   36  O  3  S    0.021659   0.000000  -0.042294   0.014052   0.000000
   37  O  3  S   -0.320379   0.000000  -0.220192   0.021868   0.000000
   38  O  3  X   -0.086222   0.000000  -0.012034   0.205616   0.000000
   39  O  3  Y    0.000000  -0.083796   0.000000   0.000000  -0.267111
   40  O  3  Z   -0.110802   0.000000  -0.103307  -0.261579   0.000000
   41  O  3  X    0.224271   0.000000   0.154300  -0.165989   0.000000
   42  O  3  Y    0.000000  -0.079647   0.000000   0.000000   0.182096
   43  O  3  Z    0.055049   0.000000   0.156150   0.140834   0.000000
   44  O  3 XX   -0.017798   0.000000  -0.008038   0.041078   0.000000
   45  O  3 YY    0.017056   0.000000   0.025162  -0.002695   0.000000
   46  O  3 ZZ    0.000742   0.000000  -0.017124  -0.038383   0.000000
   47  O  3 XY    0.000000   0.005217   0.000000   0.000000  -0.027040
   48  O  3 XZ   -0.021626   0.000000  -0.034911  -0.011012   0.000000
   49  O  3 YZ    0.000000   0.002822   0.000000   0.000000  -0.031511

                     26         27         28         29         30
                    0.4803     0.6220     0.6415     0.7813     0.7996
                     B2         A1         B1         A1         A2  
    1  S  1  S    0.000000  -0.060852   0.000000  -0.007597   0.000000
    2  S  1  S    0.000000  -0.282273   0.000000   0.031366   0.000000
    3  S  1  S    0.000000  -1.023743   0.000000  -0.049696   0.000000
    4  S  1  S    0.000000   1.441268   0.000000  -0.343178   0.000000
    5  S  1  X    0.000000   0.000000   0.061191   0.000000   0.000000
    6  S  1  Y    0.031665   0.000000   0.000000   0.000000   0.000000
    7  S  1  Z    0.000000   0.041197   0.000000   0.033316   0.000000
    8  S  1  X    0.000000   0.000000  -0.278804   0.000000   0.000000
    9  S  1  Y   -0.115755   0.000000   0.000000   0.000000   0.000000
   10  S  1  Z    0.000000  -0.203180   0.000000  -0.134346   0.000000
   11  S  1  X    0.000000   0.000000   0.629368   0.000000   0.000000
   12  S  1  Y    0.060960   0.000000   0.000000   0.000000   0.000000
   13  S  1  Z    0.000000   0.595800   0.000000  -0.316179   0.000000
   14  S  1 XX    0.000000   0.562335   0.000000   0.310664   0.000000
   15  S  1 YY    0.000000  -0.816196   0.000000   0.113049   0.000000
   16  S  1 ZZ    0.000000   0.253861   0.000000  -0.423713   0.000000
   17  S  1 XY    0.000000   0.000000   0.000000   0.000000   0.444555
   18  S  1 XZ    0.000000   0.000000   0.960348   0.000000   0.000000
   19  S  1 YZ    0.911103   0.000000   0.000000   0.000000   0.000000
   20  O  2  S    0.000000   0.050073  -0.046204  -0.018079   0.000000
   21  O  2  S    0.000000  -0.279232   0.268343   0.128731   0.000000
   22  O  2  S    0.000000  -0.142780   0.061034   0.019452   0.000000
   23  O  2  X    0.000000  -0.056778   0.028256  -0.563447   0.000000
   24  O  2  Y   -0.250694   0.000000   0.000000   0.000000  -0.586774
   25  O  2  Z    0.000000  -0.004578  -0.103718  -0.101900   0.000000
   26  O  2  X    0.000000  -0.257715   0.213991   0.794671   0.000000
   27  O  2  Y    0.172634   0.000000   0.000000   0.000000   0.731454
   28  O  2  Z    0.000000   0.212700  -0.141852   0.079182   0.000000
   29  O  2 XX    0.000000  -0.000887  -0.021037  -0.034096   0.000000
   30  O  2 YY    0.000000  -0.008352   0.018707   0.004971   0.000000
   31  O  2 ZZ    0.000000   0.009239   0.002330   0.029126   0.000000
   32  O  2 XY    0.031582   0.000000   0.000000   0.000000  -0.022980
   33  O  2 XZ    0.000000   0.000353   0.037692   0.012436   0.000000
   34  O  2 YZ   -0.015971   0.000000   0.000000   0.000000   0.021289
   35  O  3  S    0.000000   0.050073   0.046204  -0.018079   0.000000
   36  O  3  S    0.000000  -0.279232  -0.268343   0.128731   0.000000
   37  O  3  S    0.000000  -0.142780  -0.061034   0.019452   0.000000
   38  O  3  X    0.000000   0.056778   0.028256   0.563447   0.000000
   39  O  3  Y   -0.250694   0.000000   0.000000   0.000000   0.586774
   40  O  3  Z    0.000000  -0.004578   0.103718  -0.101900   0.000000
   41  O  3  X    0.000000   0.257715   0.213991  -0.794671   0.000000
   42  O  3  Y    0.172634   0.000000   0.000000   0.000000  -0.731454
   43  O  3  Z    0.000000   0.212700   0.141852   0.079182   0.000000
   44  O  3 XX    0.000000  -0.000887   0.021037  -0.034096   0.000000
   45  O  3 YY    0.000000  -0.008352  -0.018707   0.004971   0.000000
   46  O  3 ZZ    0.000000   0.009239  -0.002330   0.029126   0.000000
   47  O  3 XY   -0.031582   0.000000   0.000000   0.000000  -0.022980
   48  O  3 XZ    0.000000  -0.000353   0.037692  -0.012436   0.000000
   49  O  3 YZ   -0.015971   0.000000   0.000000   0.000000  -0.021289

                     31         32         33         34         35
                    0.8132     0.8207     0.8360     0.8747     1.4853
                     B1         B2         A1         B1         B1  
    1  S  1  S    0.000000   0.000000   0.022122   0.000000   0.000000
    2  S  1  S    0.000000   0.000000   0.037116   0.000000   0.000000
    3  S  1  S    0.000000   0.000000   0.298596   0.000000   0.000000
    4  S  1  S    0.000000   0.000000   0.059664   0.000000   0.000000
    5  S  1  X    0.057914   0.000000   0.000000  -0.077005  -0.020418
    6  S  1  Y    0.000000  -0.032919   0.000000   0.000000   0.000000
    7  S  1  Z    0.000000   0.000000  -0.079910   0.000000   0.000000
    8  S  1  X   -0.257267   0.000000   0.000000   0.384111   0.051245
    9  S  1  Y    0.000000   0.172732   0.000000   0.000000   0.000000
   10  S  1  Z    0.000000   0.000000   0.386699   0.000000   0.000000
   11  S  1  X   -0.230273   0.000000   0.000000  -0.431322   0.741883
   12  S  1  Y    0.000000  -0.491698   0.000000   0.000000   0.000000
   13  S  1  Z    0.000000   0.000000  -0.311164   0.000000   0.000000
   14  S  1 XX    0.000000   0.000000   0.272562   0.000000   0.000000
   15  S  1 YY    0.000000   0.000000   0.021560   0.000000   0.000000
   16  S  1 ZZ    0.000000   0.000000  -0.294122   0.000000   0.000000
   17  S  1 XY    0.000000   0.000000   0.000000   0.000000   0.000000
   18  S  1 XZ   -0.071667   0.000000   0.000000  -0.020890   0.441048
   19  S  1 YZ    0.000000  -0.401765   0.000000   0.000000   0.000000
   20  O  2  S    0.022132   0.000000   0.009081  -0.005111   0.020826
   21  O  2  S   -0.203438   0.000000  -0.108901   0.124980  -1.095252
   22  O  2  S    0.077932   0.000000   0.124746  -0.203870   1.381453
   23  O  2  X    0.103522   0.000000   0.158060  -0.611922  -0.103194
   24  O  2  Y    0.000000  -0.587013   0.000000   0.000000   0.000000
   25  O  2  Z   -0.607867   0.000000  -0.563965  -0.131584   0.104954
   26  O  2  X   -0.203295   0.000000  -0.194678   0.778232   0.338606
   27  O  2  Y    0.000000   0.797122   0.000000   0.000000   0.000000
   28  O  2  Z    0.821795   0.000000   0.757799   0.208736  -0.383575
   29  O  2 XX    0.003690   0.000000  -0.010488  -0.030416  -0.047517
   30  O  2 YY   -0.013673   0.000000  -0.021739   0.021325   0.099545
   31  O  2 ZZ    0.009983   0.000000   0.032227   0.009091  -0.052028
   32  O  2 XY    0.000000  -0.029377   0.000000   0.000000   0.000000
   33  O  2 XZ   -0.025854   0.000000  -0.042075   0.014543   0.158249
   34  O  2 YZ    0.000000   0.021820   0.000000   0.000000   0.000000
   35  O  3  S   -0.022132   0.000000   0.009081   0.005111  -0.020826
   36  O  3  S    0.203438   0.000000  -0.108901  -0.124980   1.095252
   37  O  3  S   -0.077932   0.000000   0.124746   0.203870  -1.381453
   38  O  3  X    0.103522   0.000000  -0.158060  -0.611922  -0.103194
   39  O  3  Y    0.000000  -0.587013   0.000000   0.000000   0.000000
   40  O  3  Z    0.607867   0.000000  -0.563965   0.131584  -0.104954
   41  O  3  X   -0.203295   0.000000   0.194678   0.778232   0.338606
   42  O  3  Y    0.000000   0.797122   0.000000   0.000000   0.000000
   43  O  3  Z   -0.821795   0.000000   0.757799  -0.208736   0.383575
   44  O  3 XX   -0.003690   0.000000  -0.010488   0.030416   0.047517
   45  O  3 YY    0.013673   0.000000  -0.021739  -0.021325  -0.099545
   46  O  3 ZZ   -0.009983   0.000000   0.032227  -0.009091   0.052028
   47  O  3 XY    0.000000   0.029377   0.000000   0.000000   0.000000
   48  O  3 XZ   -0.025854   0.000000   0.042075   0.014543   0.158249
   49  O  3 YZ    0.000000   0.021820   0.000000   0.000000   0.000000

                     36         37         38         39         40
                    1.5997     2.0953     2.0959     2.0995     2.1016
                     A1         A2         B1         B2         B1  
    1  S  1  S   -0.034657   0.000000   0.000000   0.000000   0.000000
    2  S  1  S   -0.313462   0.000000   0.000000   0.000000   0.000000
    3  S  1  S   -0.773162   0.000000   0.000000   0.000000   0.000000
    4  S  1  S    1.684728   0.000000   0.000000   0.000000   0.000000
    5  S  1  X    0.000000   0.000000   0.001577   0.000000   0.004976
    6  S  1  Y    0.000000   0.000000   0.000000  -0.000906   0.000000
    7  S  1  Z   -0.010377   0.000000   0.000000   0.000000   0.000000
    8  S  1  X    0.000000   0.000000  -0.032865   0.000000  -0.023186
    9  S  1  Y    0.000000   0.000000   0.000000  -0.006597   0.000000
   10  S  1  Z   -0.003668   0.000000   0.000000   0.000000   0.000000
   11  S  1  X    0.000000   0.000000   0.170441   0.000000   0.014575
   12  S  1  Y    0.000000   0.000000   0.000000   0.043396   0.000000
   13  S  1  Z    0.838262   0.000000   0.000000   0.000000   0.000000
   14  S  1 XX    0.229048   0.000000   0.000000   0.000000   0.000000
   15  S  1 YY   -0.336324   0.000000   0.000000   0.000000   0.000000
   16  S  1 ZZ    0.107276   0.000000   0.000000   0.000000   0.000000
   17  S  1 XY    0.000000   0.123581   0.000000   0.000000   0.000000
   18  S  1 XZ    0.000000   0.000000  -0.009112   0.000000  -0.013291
   19  S  1 YZ    0.000000   0.000000   0.000000   0.019660   0.000000
   20  O  2  S   -0.010687   0.000000  -0.000783   0.000000   0.000326
   21  O  2  S    1.124645   0.000000  -0.059352   0.000000   0.016538
   22  O  2  S   -1.585419   0.000000   0.109696   0.000000  -0.019619
   23  O  2  X    0.097966   0.000000   0.022769   0.000000   0.018570
   24  O  2  Y    0.000000  -0.019843   0.000000   0.012061   0.000000
   25  O  2  Z   -0.058473   0.000000   0.026046   0.000000   0.002421
   26  O  2  X   -0.521272   0.000000  -0.014907   0.000000  -0.032732
   27  O  2  Y    0.000000   0.027146   0.000000  -0.021459   0.000000
   28  O  2  Z    0.303483   0.000000  -0.061498   0.000000  -0.002103
   29  O  2 XX    0.126710   0.000000  -0.569825   0.000000  -0.357569
   30  O  2 YY   -0.096922   0.000000  -0.079046   0.000000   0.618306
   31  O  2 ZZ   -0.029788   0.000000   0.648871   0.000000  -0.260737
   32  O  2 XY    0.000000   0.698102   0.000000   0.281006   0.000000
   33  O  2 XZ   -0.165016   0.000000  -0.029759   0.000000  -0.338268
   34  O  2 YZ    0.000000  -0.114040   0.000000   0.649178   0.000000
   35  O  3  S   -0.010687   0.000000   0.000783   0.000000  -0.000326
   36  O  3  S    1.124645   0.000000   0.059352   0.000000  -0.016538
   37  O  3  S   -1.585419   0.000000  -0.109696   0.000000   0.019619
   38  O  3  X   -0.097966   0.000000   0.022769   0.000000   0.018570
   39  O  3  Y    0.000000   0.019843   0.000000   0.012061   0.000000
   40  O  3  Z   -0.058473   0.000000  -0.026046   0.000000  -0.002421
   41  O  3  X    0.521272   0.000000  -0.014907   0.000000  -0.032732
   42  O  3  Y    0.000000  -0.027146   0.000000  -0.021459   0.000000
   43  O  3  Z    0.303483   0.000000   0.061498   0.000000   0.002103
   44  O  3 XX    0.126710   0.000000   0.569825   0.000000   0.357569
   45  O  3 YY   -0.096922   0.000000   0.079046   0.000000  -0.618306
   46  O  3 ZZ   -0.029788   0.000000  -0.648871   0.000000   0.260737
   47  O  3 XY    0.000000   0.698102   0.000000  -0.281006   0.000000
   48  O  3 XZ    0.165016   0.000000  -0.029759   0.000000  -0.338268
   49  O  3 YZ    0.000000   0.114040   0.000000   0.649178   0.000000

                     41         42         43         44         45
                    2.1017     2.1027     2.1175     2.1574     2.3122
                     A1         A2         B2         A1         A1  
    1  S  1  S    0.000315   0.000000   0.000000  -0.005649  -0.004572
    2  S  1  S   -0.001500   0.000000   0.000000  -0.022714  -0.185639
    3  S  1  S    0.001332   0.000000   0.000000  -0.090196  -0.287834
    4  S  1  S    0.005056   0.000000   0.000000   0.118894   0.967909
    5  S  1  X    0.000000   0.000000   0.000000   0.000000   0.000000
    6  S  1  Y    0.000000   0.000000   0.003126   0.000000   0.000000
    7  S  1  Z   -0.002507   0.000000   0.000000   0.010508  -0.072607
    8  S  1  X    0.000000   0.000000   0.000000   0.000000   0.000000
    9  S  1  Y    0.000000   0.000000   0.021819   0.000000   0.000000
   10  S  1  Z    0.008960   0.000000   0.000000  -0.069046   0.227338
   11  S  1  X    0.000000   0.000000   0.000000   0.000000   0.000000
   12  S  1  Y    0.000000   0.000000  -0.144912   0.000000   0.000000
   13  S  1  Z   -0.006174   0.000000   0.000000   0.192448   0.414810
   14  S  1 XX    0.019469   0.000000   0.000000  -0.182680   0.209443
   15  S  1 YY   -0.031321   0.000000   0.000000   0.004779  -0.337986
   16  S  1 ZZ    0.011852   0.000000   0.000000   0.177901   0.128544
   17  S  1 XY    0.000000  -0.093954   0.000000   0.000000   0.000000
   18  S  1 XZ    0.000000   0.000000   0.000000   0.000000   0.000000
   19  S  1 YZ    0.000000   0.000000  -0.141288   0.000000   0.000000
   20  O  2  S    0.000879   0.000000   0.000000   0.001298   0.005426
   21  O  2  S    0.001004   0.000000   0.000000   0.046563   0.483531
   22  O  2  S   -0.005823   0.000000   0.000000  -0.102991  -0.767947
   23  O  2  X   -0.006516   0.000000   0.000000   0.009315   0.092572
   24  O  2  Y    0.000000   0.010624  -0.035410   0.000000   0.000000
   25  O  2  Z   -0.003783   0.000000   0.000000   0.030831  -0.062434
   26  O  2  X    0.006662   0.000000   0.000000  -0.052861  -0.377824
   27  O  2  Y    0.000000  -0.014417   0.070570   0.000000   0.000000
   28  O  2  Z    0.008832   0.000000   0.000000  -0.043426   0.246851
   29  O  2 XX   -0.261164   0.000000   0.000000  -0.541113  -0.366066
   30  O  2 YY    0.624734   0.000000   0.000000  -0.065621   0.321269
   31  O  2 ZZ   -0.363570   0.000000   0.000000   0.606734   0.044797
   32  O  2 XY    0.000000   0.113749   0.650942   0.000000   0.000000
   33  O  2 XZ   -0.325848   0.000000   0.000000  -0.245585   0.571421
   34  O  2 YZ    0.000000   0.697953  -0.283855   0.000000   0.000000
   35  O  3  S    0.000879   0.000000   0.000000   0.001298   0.005426
   36  O  3  S    0.001004   0.000000   0.000000   0.046563   0.483531
   37  O  3  S   -0.005823   0.000000   0.000000  -0.102991  -0.767947
   38  O  3  X    0.006516   0.000000   0.000000  -0.009315  -0.092572
   39  O  3  Y    0.000000  -0.010624  -0.035410   0.000000   0.000000
   40  O  3  Z   -0.003783   0.000000   0.000000   0.030831  -0.062434
   41  O  3  X   -0.006662   0.000000   0.000000   0.052861   0.377824
   42  O  3  Y    0.000000   0.014417   0.070570   0.000000   0.000000
   43  O  3  Z    0.008832   0.000000   0.000000  -0.043426   0.246851
   44  O  3 XX   -0.261164   0.000000   0.000000  -0.541113  -0.366066
   45  O  3 YY    0.624734   0.000000   0.000000  -0.065621   0.321269
   46  O  3 ZZ   -0.363570   0.000000   0.000000   0.606734   0.044797
   47  O  3 XY    0.000000   0.113749  -0.650942   0.000000   0.000000
   48  O  3 XZ    0.325848   0.000000   0.000000   0.245585  -0.571421
   49  O  3 YZ    0.000000  -0.697953  -0.283855   0.000000   0.000000

                     46
                    2.3680
                     B1  
    1  S  1  S    0.000000
    2  S  1  S    0.000000
    3  S  1  S    0.000000
    4  S  1  S    0.000000
    5  S  1  X    0.086457
    6  S  1  Y    0.000000
    7  S  1  Z    0.000000
    8  S  1  X   -0.288212
    9  S  1  Y    0.000000
   10  S  1  Z    0.000000
   11  S  1  X   -0.303284
   12  S  1  Y    0.000000
   13  S  1  Z    0.000000
   14  S  1 XX    0.000000
   15  S  1 YY    0.000000
   16  S  1 ZZ    0.000000
   17  S  1 XY    0.000000
   18  S  1 XZ   -0.486834
   19  S  1 YZ    0.000000
   20  O  2  S    0.004479
   21  O  2  S    0.374461
   22  O  2  S   -0.554830
   23  O  2  X    0.071881
   24  O  2  Y    0.000000
   25  O  2  Z   -0.068220
   26  O  2  X   -0.260501
   27  O  2  Y    0.000000
   28  O  2  Z    0.258148
   29  O  2 XX   -0.224599
   30  O  2 YY    0.332042
   31  O  2 ZZ   -0.107444
   32  O  2 XY    0.000000
   33  O  2 XZ    0.622144
   34  O  2 YZ    0.000000
   35  O  3  S   -0.004479
   36  O  3  S   -0.374461
   37  O  3  S    0.554830
   38  O  3  X    0.071881
   39  O  3  Y    0.000000
   40  O  3  Z    0.068220
   41  O  3  X   -0.260501
   42  O  3  Y    0.000000
   43  O  3  Z   -0.258148
   44  O  3 XX    0.224599
   45  O  3 YY   -0.332042
   46  O  3 ZZ    0.107444
   47  O  3 XY    0.000000
   48  O  3 XZ    0.622144
   49  O  3 YZ    0.000000
 ...... END OF RHF CALCULATION ......
 STEP CPU TIME =     4.19 TOTAL CPU TIME =        4.4 (    0.1 MIN)
 TOTAL WALL CLOCK TIME=        4.4 SECONDS, CPU UTILIZATION IS  99.77%

     ---------------------------------------------------------------------
     PROPERTIES FOR THE PBE      DFT FUNCTIONAL (RHF  TYPE) DENSITY MATRIX
     ---------------------------------------------------------------------

          -----------------
          ENERGY COMPONENTS
          -----------------

         WAVEFUNCTION NORMALIZATION =       1.0000000000

                ONE ELECTRON ENERGY =    -920.6541230309
                TWO ELECTRON ENERGY =     289.6067642404
           NUCLEAR REPULSION ENERGY =      82.9340603356
                                      ------------------
                       TOTAL ENERGY =    -548.1132984549

 ELECTRON-ELECTRON POTENTIAL ENERGY =     289.6067642404
  NUCLEUS-ELECTRON POTENTIAL ENERGY =   -1467.2587821591
   NUCLEUS-NUCLEUS POTENTIAL ENERGY =      82.9340603356
                                      ------------------
             TOTAL POTENTIAL ENERGY =   -1094.7179575831
               TOTAL KINETIC ENERGY =     546.6046591281
                 VIRIAL RATIO (V/T) =       2.0027600192

          ---------------------------------------
          MULLIKEN AND LOWDIN POPULATION ANALYSES
          ---------------------------------------

     ATOMIC MULLIKEN POPULATION IN EACH MOLECULAR ORBITAL

                      1          2          3          4          5

                  2.000000   2.000000   2.000000   2.000000   2.000000

    1             1.999997   0.000688   0.000377   1.999837   2.000002
    2             0.000001   0.999656   0.999812   0.000082  -0.000001
    3             0.000001   0.999656   0.999812   0.000082  -0.000001

                      6          7          8          9         10

                  2.000000   2.000000   2.000000   2.000000   2.000000

    1             2.000002   1.999996   0.469065   0.102555   1.452517
    2            -0.000001   0.000002   0.765468   0.948722   0.273742
    3            -0.000001   0.000002   0.765468   0.948722   0.273742

                     11         12         13         14         15

                  2.000000   2.000000   2.000000   2.000000   2.000000

    1             0.788709   1.066192   1.292258   0.016480   0.065287
    2             0.605645   0.466904   0.353871   0.991760   0.967357
    3             0.605645   0.466904   0.353871   0.991760   0.967357

                     16

                  2.000000

    1             0.062264
    2             0.968868
    3             0.968868

               ----- POPULATIONS IN EACH AO -----
                             MULLIKEN      LOWDIN
              1  S  1  S      2.00022     1.99605
              2  S  1  S      2.01089     1.97451
              3  S  1  S      1.01298     0.64944
              4  S  1  S      0.89472     0.56759
              5  S  1  X      1.99605     1.95312
              6  S  1  Y      1.99643     1.95812
              7  S  1  Z      1.99649     1.95746
              8  S  1  X      0.62941     0.59453
              9  S  1  Y      0.73279     0.71367
             10  S  1  Z      0.73086     0.69907
             11  S  1  X      0.29158     0.38409
             12  S  1  Y      0.56023     0.60361
             13  S  1  Z      0.36820     0.47552
             14  S  1 XX      0.01635     0.23843
             15  S  1 YY      0.02287     0.24948
             16  S  1 ZZ      0.01648     0.24230
             17  S  1 XY      0.03686     0.01870
             18  S  1 XZ      0.00281     0.04901
             19  S  1 YZ      0.00000     0.00274
             20  O  2  S      1.99802     1.98158
             21  O  2  S      0.86267     0.67666
             22  O  2  S      1.12043     0.62740
             23  O  2  X      0.89313     0.85740
             24  O  2  Y      0.81344     0.78552
             25  O  2  Z      0.93731     0.90304
             26  O  2  X      0.57152     0.63087
             27  O  2  Y      0.53072     0.56421
             28  O  2  Z      0.60777     0.66453
             29  O  2 XX      0.00098     0.21158
             30  O  2 YY      0.00134     0.21635
             31  O  2 ZZ      0.00082     0.21115
             32  O  2 XY      0.00307     0.00105
             33  O  2 XZ      0.00065     0.00413
             34  O  2 YZ      0.00000     0.00080
             35  O  3  S      1.99802     1.98158
             36  O  3  S      0.86267     0.67666
             37  O  3  S      1.12043     0.62740
             38  O  3  X      0.89313     0.85740
             39  O  3  Y      0.81344     0.78552
             40  O  3  Z      0.93731     0.90304
             41  O  3  X      0.57152     0.63087
             42  O  3  Y      0.53072     0.56421
             43  O  3  Z      0.60777     0.66453
             44  O  3 XX      0.00098     0.21158
             45  O  3 YY      0.00134     0.21635
             46  O  3 ZZ      0.00082     0.21115
             47  O  3 XY      0.00307     0.00105
             48  O  3 XZ      0.00065     0.00413
             49  O  3 YZ      0.00000     0.00080

          ----- MULLIKEN ATOMIC OVERLAP POPULATIONS -----
          (OFF-DIAGONAL ELEMENTS NEED TO BE MULTIPLIED BY 2)

             1           2           3

    1   14.8689210
    2    0.2236527   8.1449470
    3    0.2236527  -0.0267128   8.1449470

          TOTAL MULLIKEN AND LOWDIN ATOMIC POPULATIONS
       ATOM         MULL.POP.    CHARGE          LOW.POP.     CHARGE
    1 S            15.316226    0.683774        15.327440    0.672560
    2 O             8.341887   -0.341887         8.336280   -0.336280
    3 O             8.341887   -0.341887         8.336280   -0.336280

          MULLIKEN SPHERICAL HARMONIC POPULATIONS
       ATOM           S       P       D      F      G      H      I    TOTAL
    1 S             5.92    9.30    0.10   0.00   0.00   0.00   0.00   15.32
    2 O             3.98    4.35    0.01   0.00   0.00   0.00   0.00    8.34
    3 O             3.98    4.35    0.01   0.00   0.00   0.00   0.00    8.34

          -------------------------------
          BOND ORDER AND VALENCE ANALYSIS     BOND ORDER THRESHOLD=0.050
          -------------------------------

                   BOND                       BOND                       BOND
  ATOM PAIR DIST  ORDER      ATOM PAIR DIST  ORDER      ATOM PAIR DIST  ORDER
    1   2  1.900  1.527        1   3  1.900  1.527        2   3  2.911  0.592

                       TOTAL       BONDED        FREE
      ATOM            VALENCE     VALENCE     VALENCE
    1 S                 3.055       3.055       0.000
    2 O                 2.119       2.119       0.000
    3 O                 2.119       2.119       0.000

          ---------------------
          ELECTROSTATIC MOMENTS
          ---------------------

 POINT   1           X           Y           Z (BOHR)    CHARGE
                 0.000000    0.000000    0.000000        0.00 (A.U.)
         DX          DY          DZ         /D/  (DEBYE)
     0.000000    0.000000   -2.928112    2.928112
 ...... END OF PROPERTY EVALUATION ......
 STEP CPU TIME =     0.00 TOTAL CPU TIME =        4.4 (    0.1 MIN)
 TOTAL WALL CLOCK TIME=        4.4 SECONDS, CPU UTILIZATION IS  99.54%
               580000  WORDS OF DYNAMIC MEMORY USED
 EXECUTION OF GAMESS TERMINATED NORMALLY Thu Feb 26 00:21:33 2015
 DDI: 263624 bytes (0.3 MB / 0 MWords) used by master data server.

 ----------------------------------------
 CPU timing information for all processes
 ========================================
 0: 4.350 + 0.29 = 4.380
 ----------------------------------------
 ddikick.x: exited gracefully.
----- accounting info -----
Files used on the master node dftfe.crc.nd.edu were:
-rw-r--r-- 1 pmehta1 campus   37475 Feb 26 00:21 /tmp/gamess.dat
-rw-r--r-- 1 pmehta1 campus     142 Feb 26 00:21 /tmp/gamess.F05
-rw-r--r-- 1 pmehta1 campus 2160288 Feb 26 00:21 /tmp/gamess.F08
-rw-r--r-- 1 pmehta1 campus 1220440 Feb 26 00:21 /tmp/gamess.F10
Thu Feb 26 00:21:36 EST 2015
0.237u 0.180s 0:07.82 5.2%	0+0k 0+112io 0pf+0w
