----- GAMESS execution script 'rungms' -----
This job is running on host dftfe.crc.nd.edu
under operating system Linux at Thu Feb 26 00:21:04 EST 2015
Available scratch disk space (Kbyte units) at beginning of the job is
Filesystem     1K-blocks     Used Available Use% Mounted on
/dev/sda2      147771864 22817060 117448372  17% /
GAMESS temporary binary files will be written to /tmp
GAMESS supplementary output files will be written to /tmp
Copying input file gamess.inp to your run's scratch directory...

 Distributed Data Interface kickoff program.
 Initiating 1 compute processes on 1 nodes to run the following command:
 /opt/crc/gamess/2012R1/gamess/gamess.00.x gamess 

          ******************************************************
          *         GAMESS VERSION =  1 MAY 2012 (R1)          *
          *             FROM IOWA STATE UNIVERSITY             *
          * M.W.SCHMIDT, K.K.BALDRIDGE, J.A.BOATZ, S.T.ELBERT, *
          *   M.S.GORDON, J.H.JENSEN, S.KOSEKI, N.MATSUNAGA,   *
          *          K.A.NGUYEN, S.J.SU, T.L.WINDUS,           *
          *       TOGETHER WITH M.DUPUIS, J.A.MONTGOMERY       *
          *         J.COMPUT.CHEM.  14, 1347-1363(1993)        *
          **************** 64 BIT LINUX VERSION ****************

  SINCE 1993, STUDENTS AND POSTDOCS WORKING AT IOWA STATE UNIVERSITY
  AND ALSO IN THEIR VARIOUS JOBS AFTER LEAVING ISU HAVE MADE IMPORTANT
  CONTRIBUTIONS TO THE CODE:
     IVANA ADAMOVIC, CHRISTINE AIKENS, YURI ALEXEEV, POOJA ARORA,
     ANDREY ASADCHEV, ROB BELL, PRADIPTA BANDYOPADHYAY, JONATHAN BENTZ,
     BRETT BODE, GALINA CHABAN, WEI CHEN, CHEOL HO CHOI, PAUL DAY,
     ALBERT DEFUSCO, TIM DUDLEY, DMITRI FEDOROV, GRAHAM FLETCHER,
     MARK FREITAG, KURT GLAESEMANN, DAN KEMP, GRANT MERRILL,
     NORIYUKI MINEZAWA, JONATHAN MULLIN, TAKESHI NAGATA,
     SEAN NEDD, HEATHER NETZLOFF, BOSILJKA NJEGIC, RYAN OLSON, MIKE PAK,
     JIM SHOEMAKER, LYUDMILA SLIPCHENKO, SAROM SOK, JIE SONG,
     TETSUYA TAKETSUGU, SIMON WEBB, SOOHAENG YOO, FEDERICO ZAHARIEV

  ADDITIONAL CODE HAS BEEN PROVIDED BY COLLABORATORS IN OTHER GROUPS:
     IOWA STATE UNIVERSITY:
          JOE IVANIC, LAIMUTIS BYTAUTAS, KLAUS RUEDENBERG
     UNIVERSITY OF TOKYO: KIMIHIKO HIRAO, TAKAHITO NAKAJIMA,
          TAKAO TSUNEDA, MUNEAKI KAMIYA, SUSUMU YANAGISAWA,
          KIYOSHI YAGI, MAHITO CHIBA, SEIKEN TOKURA, NAOAKI KAWAKAMI
     UNIVERSITY OF AARHUS: FRANK JENSEN
     UNIVERSITY OF IOWA: VISVALDAS KAIRYS, HUI LI
     NATIONAL INST. OF STANDARDS AND TECHNOLOGY: WALT STEVENS, DAVID GARMER
     UNIVERSITY OF PISA: BENEDETTA MENNUCCI, JACOPO TOMASI
     UNIVERSITY OF MEMPHIS: HENRY KURTZ, PRAKASHAN KORAMBATH
     UNIVERSITY OF ALBERTA: TOBY ZENG, MARIUSZ KLOBUKOWSKI
     UNIVERSITY OF NEW ENGLAND: MARK SPACKMAN
     MIE UNIVERSITY: HIROAKI UMEDA
     MICHIGAN STATE UNIVERSITY:
          KAROL KOWALSKI, MARTA WLOCH, JEFFREY GOUR, JESSE LUTZ, PIOTR PIECUCH
     UNIVERSITY OF SILESIA: MONIKA MUSIAL, STANISLAW KUCHARSKI
     FACULTES UNIVERSITAIRES NOTRE-DAME DE LA PAIX:
          OLIVIER QUINET, BENOIT CHAMPAGNE
     UNIVERSITY OF CALIFORNIA - SANTA BARBARA: BERNARD KIRTMAN
     INSTITUTE FOR MOLECULAR SCIENCE:
          KAZUYA ISHIMURA, MICHIO KATOUDA, AND SHIGERU NAGASE
     UNIVERSITY OF NOTRE DAME: DAN CHIPMAN
     KYUSHU UNIVERSITY:
          HARUYUKI NAKANO,
          FENG LONG GU, JACEK KORCHOWIEC, MARCIN MAKOWSKI, AND YURIKO AOKI,
          HIROTOSHI MORI AND EISAKU MIYOSHI
     PENNSYLVANIA STATE UNIVERSITY:
          TZVETELIN IORDANOV, CHET SWALINA, JONATHAN SKONE,
          SHARON HAMMES-SCHIFFER
     WASEDA UNIVERSITY:
          MASATO KOBAYASHI, TOMOKO AKAMA, TSUGUKI TOUMA,
          TAKESHI YOSHIKAWA, YASUHIRO IKABATA, HIROMI NAKAI
     UNIVERSITY OF NEBRASKA:
          PEIFENG SU, DEJUN SI, NANDUN THELLAMUREGE, YALI WANG, HUI LI
     UNIVERSITY OF ZURICH:
          ROBERTO PEVERATI, KIM BALDRIDGE
     N. COPERNICUS UNIVERSITY AND JACKSON STATE UNIVERSITY:
          MARIA BARYSZ

 EXECUTION OF GAMESS BEGUN Thu Feb 26 00:21:04 2015

            ECHO OF THE FIRST FEW INPUT CARDS -
 INPUT CARD> $BASIS GBASIS=PC1 $END                                                         
 INPUT CARD> $CONTRL COORD=ZMT ISPHER=1 RUNTYP=ENERGY DFTTYP=PBE $END                       
 INPUT CARD>                                                                                
 INPUT CARD> $DATA                                                                          
 INPUT CARD>Title                                                                           
 INPUT CARD>Cnv 2                                                                           
 INPUT CARD>                                                                                
 INPUT CARD>S                                                                               
 INPUT CARD>O 1 1.80                                                                        
 INPUT CARD>O 1 1.80 2 160.0                                                                
 INPUT CARD> $END                                                                           
    1000000 WORDS OF MEMORY AVAILABLE

     BASIS OPTIONS
     -------------
     GBASIS=PC1          IGAUSS=       0      POLAR=NONE    
     NDFUNC=       0     NFFUNC=       0     DIFFSP=       F
     NPFUNC=       0      DIFFS=       F     BASNAM=        


     RUN TITLE
     ---------
 Title                                                                           

 THE POINT GROUP OF THE MOLECULE IS CNV     
 THE ORDER OF THE PRINCIPAL AXIS IS     2

 YOUR FULLY SUBSTITUTED Z-MATRIX IS
 S   
 O      1   1.8000000
 O      1   1.8000000  2  160.0000

 THE MOMENTS OF INERTIA ARE (AMU-ANGSTROM**2)
 IXX=     1.562   IYY=   100.522   IZZ=   102.084

 ATOM      ATOMIC                      COORDINATES (BOHR)
           CHARGE         X                   Y                   Z
 S          16.0     0.0000000000        0.0000000000       -0.2954146841
 O           8.0    -3.3498302468        0.0000000000        0.2952507692
 O           8.0     3.3498302468        0.0000000000        0.2952507692

          INTERNUCLEAR DISTANCES (ANGS.)
          ------------------------------

                1 S          2 O          3 O     

   1 S       0.0000000    1.8000000 *  1.8000000 *
   2 O       1.8000000 *  0.0000000    3.5453079  
   3 O       1.8000000 *  3.5453079    0.0000000  

  * ... LESS THAN  3.000


     ATOMIC BASIS SET
     ----------------
 THE CONTRACTED PRIMITIVE FUNCTIONS HAVE BEEN UNNORMALIZED
 THE CONTRACTED BASIS FUNCTIONS ARE NOW NORMALIZED TO UNITY

  SHELL TYPE  PRIMITIVE        EXPONENT          CONTRACTION COEFFICIENT(S)

 S         

      1   S       1         55510.0000000    0.000587229760
      1   S       2          8326.7000000    0.004532413947
      1   S       3          1895.6000000    0.023265261648
      1   S       4           536.7700000    0.089696133027
      1   S       5           174.6700000    0.254098332277
      1   S       6            62.5780000    0.438665087637
      1   S       7            23.5730000    0.314547135094
      1   S       8             5.8908000    0.032727897102

      2   S       9          8326.7000000   -0.000019755715
      2   S      10          1895.6000000   -0.000043822381
      2   S      11           536.7700000   -0.001730264906
      2   S      12           174.6700000   -0.009381263460
      2   S      13            62.5780000   -0.064050766303
      2   S      14            23.5730000   -0.082478179196
      2   S      15             5.8908000    0.478342956889
      2   S      16             2.1852000    0.626896670208

      3   S      17          1895.6000000    0.000016227260
      3   S      18           536.7700000    0.000191135619
      3   S      19           174.6700000    0.001952069674
      3   S      20            62.5780000    0.010578701087
      3   S      21            23.5730000    0.022164934551
      3   S      22             5.8908000   -0.184968323118
      3   S      23             2.1852000   -0.480920750976
      3   S      24             0.4528200    1.243822243872

      4   S      25             0.1620200    1.000000000000

      5   P      26           395.4500000    0.004642761329
      5   P      27            92.8340000    0.036023396489
      5   P      28            29.2660000    0.149058869978
      5   P      29            10.5950000    0.360033266263
      5   P      30             4.0272000    0.455756476221
      5   P      31             1.5484000    0.206167664178

      6   P      32            92.8340000    0.000169901442
      6   P      33            29.2660000   -0.002541839934
      6   P      34            10.5950000   -0.007867614595
      6   P      35             4.0272000   -0.037231009184
      6   P      36             1.5484000    0.161417246830
      6   P      37             0.4613400    0.902230419976

      7   P      38             0.1313100    1.000000000000

      8   D      39             0.5500000    1.000000000000

 O         

     15   S      40          2306.7000000    0.005424388755
     15   S      41           347.1500000    0.040474749465
     15   S      42            78.8900000    0.180219634554
     15   S      43            21.8760000    0.462370311787
     15   S      44             6.6646000    0.454888396263

     16   S      45           347.1500000   -0.000655003786
     16   S      46            78.8900000   -0.005362052952
     16   S      47            21.8760000   -0.074902158894
     16   S      48             6.6646000   -0.181442579655
     16   S      49             1.0669000    1.102006874042

     17   S      50             0.3070000    1.000000000000

     18   P      51            17.0220000    0.068979967443
     18   P      52             3.6838000    0.351985516325
     18   P      53             0.9923400    0.724036547822

     19   P      54             0.2448700    1.000000000000

     20   D      55             1.0000000    1.000000000000

 TOTAL NUMBER OF BASIS SET SHELLS             =   20
 NUMBER OF CARTESIAN GAUSSIAN BASIS FUNCTIONS =   49
 NOTE: THIS RUN WILL RESTRICT THE MO VARIATION SPACE TO SPHERICAL HARMONICS.
 THE NUMBER OF ORBITALS KEPT IN THE VARIATIONAL SPACE WILL BE PRINTED LATER.
 NUMBER OF ELECTRONS                          =   32
 CHARGE OF MOLECULE                           =    0
 SPIN MULTIPLICITY                            =    1
 NUMBER OF OCCUPIED ORBITALS (ALPHA)          =   16
 NUMBER OF OCCUPIED ORBITALS (BETA )          =   16
 TOTAL NUMBER OF ATOMS                        =    3
 THE NUCLEAR REPULSION ENERGY IS       84.8134872036

     LEBEDEV GRID-BASED DFT OPTIONS
     ------------------------------
     DFTTYP=PBE     
     NRAD  =      96     NLEB  =     302
     NRAD0 =      24     NLEB0 =     110
     SWOFF =    5.00E-03 (PURE SCF -> DFT)
     SWITCH=    3.00E-04 (COARSE -> TIGHT GRID)
     THRESH=    0.00E+00 GTHRE=    1.00E+00

 GRIMME'S EMPIRICAL DISPERSION CORRECTION= F

     $CONTRL OPTIONS
     ---------------
 SCFTYP=RHF          RUNTYP=ENERGY       EXETYP=RUN     
 MPLEVL=       0     CITYP =NONE         CCTYP =NONE         VBTYP =NONE    
 DFTTYP=PBE          TDDFT =NONE    
 MULT  =       1     ICHARG=       0     NZVAR =       0     COORD =ZMT     
 PP    =NONE         RELWFN=NONE         LOCAL =NONE         NUMGRD=       F
 ISPHER=       1     NOSYM =       0     MAXIT =      30     UNITS =ANGS    
 PLTORB=       F     MOLPLT=       F     AIMPAC=       F     FRIEND=        
 NPRINT=       7     IREST =       0     GEOM  =INPUT   
 NORMF =       0     NORMP =       0     ITOL  =      20     ICUT  =       9
 INTTYP=BEST         GRDTYP=BEST         QMTTOL= 1.0E-06

     $SYSTEM OPTIONS
     ---------------
  REPLICATED MEMORY=     1000000 WORDS (ON EVERY NODE).
 DISTRIBUTED MEMDDI=           0 MILLION WORDS IN AGGREGATE,
 MEMDDI DISTRIBUTED OVER   1 PROCESSORS IS           0 WORDS/PROCESSOR.
 TOTAL MEMORY REQUESTED ON EACH PROCESSOR=     1000000 WORDS.
 TIMLIM=      525600.00 MINUTES, OR     365.0 DAYS.
 PARALL= F  BALTYP=  DLB     KDIAG=    0  COREFL= F
 MXSEQ2=     300 MXSEQ3=     150

          ----------------
          PROPERTIES INPUT
          ----------------

     MOMENTS            FIELD           POTENTIAL          DENSITY
 IEMOM =       1   IEFLD =       0   IEPOT =       0   IEDEN =       0
 WHERE =COMASS     WHERE =NUCLEI     WHERE =NUCLEI     WHERE =NUCLEI  
 OUTPUT=BOTH       OUTPUT=BOTH       OUTPUT=BOTH       OUTPUT=BOTH    
 IEMINT=       0   IEFINT=       0                     IEDINT=       0
                                                       MORB  =       0
          EXTRAPOLATION IN EFFECT
          DIIS IN EFFECT
 ORBITAL PRINTING OPTION: NPREO=     1    49     2     1

     -------------------------------
     INTEGRAL TRANSFORMATION OPTIONS
     -------------------------------
     NWORD  =            0
     CUTOFF = 1.0E-09     MPTRAN =       0
     DIRTRF =       F     AOINTS =DUP     

          ----------------------
          INTEGRAL INPUT OPTIONS
          ----------------------
 NOPK  =       1 NORDER=       0 SCHWRZ=       F

   --- ENCODED Z MATRIX ---
 COORD  TYPE   I   J   K   L   M   N
    1      1    3   1
    2      1    2   1
    3      2    2   1   3

 THE DETERMINANT OF THE G MATRIX IS 10**(    -4)

 THE DETERMINANT OF THE G MATRIX IS 10**(    -4)
 * * * WARNING * * *
 YOUR B MATRIX HAS A SMALL DETERMINANT.
 THIS SUGGESTS YOU MAY HAVE BADLY CHOSEN COORDINATES.

     ------------------------------------------
     THE POINT GROUP IS CNV, NAXIS= 2, ORDER= 4
     ------------------------------------------

 -- VARIATIONAL SPACE WILL BE RESTRICTED TO PURE SPHERICAL HARMONICS ONLY --
 AFTER EXCLUDING CONTAMINANT COMBINATIONS FROM THE CARTESIAN GAUSSIAN BASIS
 SET, THE NUMBER OF SPHERICAL HARMONICS KEPT IN THE VARIATION SPACE IS   46

     DIMENSIONS OF THE SYMMETRY SUBSPACES ARE
 A1  =   19     A2  =    5     B1  =   14     B2  =    8

 ..... DONE SETTING UP THE RUN .....
 STEP CPU TIME =     0.01 TOTAL CPU TIME =        0.0 (    0.0 MIN)
 TOTAL WALL CLOCK TIME=        0.0 SECONDS, CPU UTILIZATION IS  50.00%

          ********************
          1 ELECTRON INTEGRALS
          ********************
 ...... END OF ONE-ELECTRON INTEGRALS ......
 STEP CPU TIME =     0.00 TOTAL CPU TIME =        0.0 (    0.0 MIN)
 TOTAL WALL CLOCK TIME=        0.0 SECONDS, CPU UTILIZATION IS  50.00%

          -------------
          GUESS OPTIONS
          -------------
          GUESS =HUCKEL            NORB  =       0          NORDER=       0
          MIX   =       F          PRTMO =       F          PUNMO =       F
          TOLZ  = 1.0E-08          TOLE  = 1.0E-05
          SYMDEN=       F          PURIFY=       F

 INITIAL GUESS ORBITALS GENERATED BY HUCKEL   ROUTINE.
 HUCKEL GUESS REQUIRES     21583 WORDS.

 STATISTICS FOR GENERATION OF SYMMETRY ORBITAL -Q- MATRIX
 NUMBER OF CARTESIAN ATOMIC ORBITALS=         49
 NUMBER OF SPHERICAL CONTAMINANTS DROPPED=     3
 NUMBER OF LINEARLY DEPENDENT MOS DROPPED=     0
 TOTAL NUMBER OF MOS IN VARIATION SPACE=      46

 SYMMETRIES FOR INITIAL GUESS ORBITALS FOLLOW.   BOTH SET(S).
    16 ORBITALS ARE OCCUPIED (    7 CORE ORBITALS).
     8=?B1      9=?A1     10=A1      11=B1      12=B2      13=A1      14=A2  
    15=B1      16=?A1     17=B2      18=A1      19=B1      20=A1      21=A1  
    22=A1      23=A1      24=A1      25=A1      26=A1  
 ...... END OF INITIAL ORBITAL SELECTION ......
 STEP CPU TIME =     0.01 TOTAL CPU TIME =        0.0 (    0.0 MIN)
 TOTAL WALL CLOCK TIME=        0.0 SECONDS, CPU UTILIZATION IS  66.67%

                    ----------------------
                    AO INTEGRAL TECHNOLOGY
                    ----------------------
     S,P,L SHELL ROTATED AXIS INTEGRALS, REPROGRAMMED BY
        KAZUYA ISHIMURA (IMS) AND JOSE SIERRA (SYNSTAR).
     S,P,D,L SHELL ROTATED AXIS INTEGRALS PROGRAMMED BY
        KAZUYA ISHIMURA (INSTITUTE FOR MOLECULAR SCIENCE).
     S,P,D,F,G SHELL TO TOTAL QUARTET ANGULAR MOMENTUM SUM 5,
        ERIC PROGRAM BY GRAHAM FLETCHER (ELORET AND NASA ADVANCED
        SUPERCOMPUTING DIVISION, AMES RESEARCH CENTER).
     S,P,D,F,G,L SHELL GENERAL RYS QUADRATURE PROGRAMMED BY
        MICHEL DUPUIS (PACIFIC NORTHWEST NATIONAL LABORATORY).

          --------------------
          2 ELECTRON INTEGRALS
          --------------------

 THE -PK- OPTION IS OFF, THE INTEGRALS ARE NOT IN SUPERMATRIX FORM.
 STORING   15000 INTEGRALS/RECORD ON DISK, USING 12 BYTES/INTEGRAL.
 TWO ELECTRON INTEGRAL EVALUATION REQUIRES   90606 WORDS OF MEMORY.
 II,JST,KST,LST =  1  1  1  1 NREC =         1 INTLOC =    1
 II,JST,KST,LST =  2  1  1  1 NREC =         1 INTLOC =    2
 II,JST,KST,LST =  3  1  1  1 NREC =         1 INTLOC =    7
 II,JST,KST,LST =  4  1  1  1 NREC =         1 INTLOC =   22
 II,JST,KST,LST =  5  1  1  1 NREC =         1 INTLOC =   56
 II,JST,KST,LST =  6  1  1  1 NREC =         1 INTLOC =  125
 II,JST,KST,LST =  7  1  1  1 NREC =         1 INTLOC =  329
 II,JST,KST,LST =  8  1  1  1 NREC =         1 INTLOC =  776
 II,JST,KST,LST =  9  1  1  1 NREC =         1 INTLOC = 2864
 II,JST,KST,LST = 10  1  1  1 NREC =         1 INTLOC = 2864
 II,JST,KST,LST = 11  1  1  1 NREC =         1 INTLOC = 2864
 II,JST,KST,LST = 12  1  1  1 NREC =         1 INTLOC = 2864
 II,JST,KST,LST = 13  1  1  1 NREC =         1 INTLOC = 2864
 II,JST,KST,LST = 14  1  1  1 NREC =         1 INTLOC = 2864
 II,JST,KST,LST = 15  1  1  1 NREC =         1 INTLOC = 2864
 II,JST,KST,LST = 16  1  1  1 NREC =         1 INTLOC = 4816
 II,JST,KST,LST = 17  1  1  1 NREC =         1 INTLOC = 7813
 II,JST,KST,LST = 18  1  1  1 NREC =         1 INTLOC =12106
 II,JST,KST,LST = 19  1  1  1 NREC =         2 INTLOC =12463
 II,JST,KST,LST = 20  1  1  1 NREC =         4 INTLOC =12051
 TOTAL NUMBER OF NONZERO TWO-ELECTRON INTEGRALS =              148649
         10 INTEGRAL RECORDS WERE STORED ON DISK FILE  8.
  ...... END OF TWO-ELECTRON INTEGRALS .....
 STEP CPU TIME =     0.15 TOTAL CPU TIME =        0.2 (    0.0 MIN)
 TOTAL WALL CLOCK TIME=        0.2 SECONDS, CPU UTILIZATION IS  94.44%

          --------------------------
               R-PBE SCF CALCULATION
          --------------------------

     NUCLEAR ENERGY =        84.8134872036
     MAXIT =   30     NPUNCH=    2
     EXTRAP=T  DAMP=F  SHIFT=F  RSTRCT=F  DIIS=T  DEM=F  SOSCF=F
         DENSITY MATRIX CONVERGENCE THRESHOLD=  1.00E-05
     COARSE -> FINE DFT GRID SWITCH THRESHOLD=  3.00E-04 (SWITCH IN $DFT)
                   HF -> DFT SWITCH THRESHOLD=  5.00E-03 (SWOFF IN $DFT)
     MEMORY REQUIRED FOR RHF ITERS=    183108 WORDS.

 DFT CODE IS SWITCHING FROM THE FINE GRID NRAD= 96,  NLEB=  302
                      TO THE COARSE GRID NRAD0= 24, NLEB0=  110

     EXCHANGE FUNCTIONAL   =PBE       
     CORRELATION FUNCTIONAL=PBE       
     DFT THRESHOLD         =.460E-07
     GRID CHANGE THRESHOLD =.300E-03
 FOR AN EULER-MACLAURIN QUADRATURE USING  96 RADIAL POINTS:
 SMALLEST GAUSSIAN PRIMITIVE EXPONENT=        0.1313100000 OF TYPE -P-
 ON ATOM NUMBER   1 HAS RADIAL NORMALIZATION=  1.000000
  LARGEST GAUSSIAN PRIMITIVE EXPONENT=    55510.0000000000 OF TYPE -S-
 ON ATOM NUMBER   1 HAS RADIAL NORMALIZATION=  0.999999
 DFT IS SWITCHED OFF, PERFORMING PURE SCF UNTIL SWOFF THRESHOLD IS REACHED.

 ITER EX DEM     TOTAL ENERGY        E CHANGE  DENSITY CHANGE    DIIS ERROR
   1  0  0     -545.7647061817  -545.7647061817   0.567119524   0.940042163
   2  1  0     -545.9976031428    -0.2328969611   0.881333997   0.597020626
   3  2  0     -545.5979895358     0.3996136070   0.946814319   0.641467755
   4  3  0     -544.6973209875     0.9006685483   1.097796970   1.026300552
   5  0  0     -544.1101475639     0.5871734235   0.617811133   0.893032210
          * * *   INITIATING DIIS PROCEDURE   * * *
   6  1  0     -546.8156327070    -2.7054851430   0.218256214   0.063448003
   7  2  0     -546.8224957736    -0.0068630667   0.068493218   0.089730959
   8  3  0     -546.8441992828    -0.0217035092   0.029473597   0.019040432
   9  4  0     -546.8472996487    -0.0031003659   0.039886394   0.012232298
  10  5  0     -546.8501732448    -0.0028735961   0.041300114   0.008420620
  11  6  0     -546.8523200412    -0.0021467963   0.046301089   0.006105766
  12  7  0     -546.8537799031    -0.0014598619   0.012237155   0.002933761
  13  8  0     -546.8539895472    -0.0002096441   0.005878480   0.001655009
  14  9  0     -546.8540314247    -0.0000418775   0.003446241   0.001066237
 CONVERGED TO SWOFF, SO DFT CALCULATION IS NOW SWITCHED ON.
          * * *   INITIATING DIIS PROCEDURE   * * *
  15 10  0     -548.0302765595    -1.1762451348   0.491861583   0.105269594
  16 11  0     -548.0227206631     0.0075558964   0.382131262   0.177708834
  17 12  0     -547.9601891186     0.0625315445   0.205242661   0.281189464
  18 13  0     -548.1234822996    -0.1632931810   0.048549280   0.030130166
  19 14  0     -548.1268281161    -0.0033458165   0.011247449   0.011091640
  20 15  0     -548.1271572256    -0.0003291095   0.004027248   0.001274351
  21 16  0     -548.1271680949    -0.0000108693   0.000738052   0.000331777
  22 17  0     -548.1271687374    -0.0000006425   0.000073802   0.000042433
 DFT CODE IS SWITCHING BACK TO THE FINE GRID
          * * *   INITIATING DIIS PROCEDURE   * * *
  23 18  0     -548.1283293351    -0.0011605977   0.019943092   0.018063521
  24 19  0     -548.1286174904    -0.0002881553   0.022949873   0.005137469
  25 20  0     -548.1277188527     0.0008986376   0.016999620   0.021500651
  26 21  0     -548.1287045463    -0.0009856936   0.004103088   0.002520813
  27 22  0     -548.1287413605    -0.0000368142   0.000301201   0.000134202
  28 23  0     -548.1287414323    -0.0000000719   0.000090678   0.000076109
  29 24  0     -548.1287414491    -0.0000000167   0.000011628   0.000004834
  30 25  0     -548.1287414492    -0.0000000001   0.000001163   0.000000655

 SCF IS UNCONVERGED, TOO MANY ITERATIONS
     TIME TO FORM FOCK OPERATORS=       4.1 SECONDS (       0.1 SEC/ITER)
     TIME TO SOLVE SCF EQUATIONS=       0.0 SECONDS (       0.0 SEC/ITER)

 FINAL R-PBE ENERGY IS        0.0000000000 AFTER  30 ITERATIONS
 DFT EXCHANGE + CORRELATION ENERGY =       -42.1732609918
 TOTAL ELECTRON NUMBER             =        32.0000078728

          ------------
          EIGENVECTORS
          ------------

                      1          2          3          4          5
                  -88.2242   -18.8360   -18.8359    -7.8413    -5.8630
                     A1         B1         A1         A1         B1  
    1  S  1  S    1.002978   0.000000  -0.000042  -0.274146   0.000000
    2  S  1  S   -0.010287   0.000000  -0.000787   1.039461   0.000000
    3  S  1  S    0.001758   0.000000  -0.001368   0.040067   0.000000
    4  S  1  S   -0.000913   0.000000   0.005452  -0.011907   0.000000
    5  S  1  X    0.000000   0.000153   0.000000   0.000000   0.996944
    6  S  1  Y    0.000000   0.000000   0.000000   0.000000   0.000000
    7  S  1  Z    0.000046   0.000000  -0.000027   0.007408   0.000000
    8  S  1  X    0.000000  -0.000748   0.000000   0.000000   0.008713
    9  S  1  Y    0.000000   0.000000   0.000000   0.000000   0.000000
   10  S  1  Z   -0.000006   0.000000   0.000158   0.000481   0.000000
   11  S  1  X    0.000000  -0.007059   0.000000   0.000000  -0.000253
   12  S  1  Y    0.000000   0.000000   0.000000   0.000000   0.000000
   13  S  1  Z   -0.000011   0.000000   0.000809  -0.000261   0.000000
   14  S  1 XX    0.000008   0.000000   0.001494   0.000459   0.000000
   15  S  1 YY   -0.000004   0.000000  -0.000793  -0.000213   0.000000
   16  S  1 ZZ   -0.000004   0.000000  -0.000701  -0.000246   0.000000
   17  S  1 XY    0.000000   0.000000   0.000000   0.000000   0.000000
   18  S  1 XZ    0.000000  -0.000712   0.000000   0.000000   0.000443
   19  S  1 YZ    0.000000   0.000000   0.000000   0.000000   0.000000
   20  O  2  S    0.000001   0.703285   0.703212   0.000031   0.000055
   21  O  2  S    0.000008   0.025697   0.024681   0.000127   0.000134
   22  O  2  S    0.000059  -0.012402  -0.009352   0.000414  -0.000203
   23  O  2  X    0.000012   0.000790   0.000716  -0.000030   0.000007
   24  O  2  Y    0.000000   0.000000   0.000000   0.000000   0.000000
   25  O  2  Z   -0.000004  -0.000193  -0.000049  -0.000010  -0.000016
   26  O  2  X   -0.000029  -0.002979  -0.002218  -0.000503  -0.000165
   27  O  2  Y    0.000000   0.000000   0.000000   0.000000   0.000000
   28  O  2  Z    0.000010   0.000821   0.000178   0.000159   0.000086
   29  O  2 XX   -0.000059  -0.000264  -0.000401  -0.000711  -0.000197
   30  O  2 YY    0.000031   0.000149   0.000218   0.000374   0.000107
   31  O  2 ZZ    0.000028   0.000115   0.000183   0.000337   0.000090
   32  O  2 XY    0.000000   0.000000   0.000000   0.000000   0.000000
   33  O  2 XZ    0.000019   0.000119   0.000129   0.000233   0.000085
   34  O  2 YZ    0.000000   0.000000   0.000000   0.000000   0.000000
   35  O  3  S    0.000001  -0.703285   0.703212   0.000031  -0.000055
   36  O  3  S    0.000008  -0.025697   0.024681   0.000127  -0.000134
   37  O  3  S    0.000059   0.012402  -0.009352   0.000414   0.000203
   38  O  3  X   -0.000012   0.000790  -0.000716   0.000030   0.000007
   39  O  3  Y    0.000000   0.000000   0.000000   0.000000   0.000000
   40  O  3  Z   -0.000004   0.000193  -0.000049  -0.000010   0.000016
   41  O  3  X    0.000029  -0.002979   0.002218   0.000503  -0.000165
   42  O  3  Y    0.000000   0.000000   0.000000   0.000000   0.000000
   43  O  3  Z    0.000010  -0.000821   0.000178   0.000159  -0.000086
   44  O  3 XX   -0.000059   0.000264  -0.000401  -0.000711   0.000197
   45  O  3 YY    0.000031  -0.000149   0.000218   0.000374  -0.000107
   46  O  3 ZZ    0.000028  -0.000115   0.000183   0.000337  -0.000090
   47  O  3 XY    0.000000   0.000000   0.000000   0.000000   0.000000
   48  O  3 XZ   -0.000019   0.000119  -0.000129  -0.000233   0.000085
   49  O  3 YZ    0.000000   0.000000   0.000000   0.000000   0.000000

                      6          7          8          9         10
                   -5.8602    -5.8590    -0.9231    -0.8922    -0.6556
                     B2         A1         A1         B1         A1  
    1  S  1  S    0.000000   0.002057   0.040417   0.000000   0.075256
    2  S  1  S    0.000000  -0.007799  -0.120251   0.000000  -0.216730
    3  S  1  S    0.000000   0.000069   0.235585   0.000000   0.466667
    4  S  1  S    0.000000  -0.000321   0.186249   0.000000   0.451306
    5  S  1  X    0.000000   0.000000   0.000000   0.076922   0.000000
    6  S  1  Y    0.996991   0.000000   0.000000   0.000000   0.000000
    7  S  1  Z    0.000000   0.996984  -0.015612   0.000000  -0.003777
    8  S  1  X    0.000000   0.000000   0.000000  -0.153907   0.000000
    9  S  1  Y    0.008632   0.000000   0.000000   0.000000   0.000000
   10  S  1  Z    0.000000   0.008562   0.033299   0.000000   0.013113
   11  S  1  X    0.000000   0.000000   0.000000  -0.026738   0.000000
   12  S  1  Y   -0.000107   0.000000   0.000000   0.000000   0.000000
   13  S  1  Z    0.000000  -0.000116   0.007708   0.000000  -0.001671
   14  S  1 XX    0.000000  -0.000361   0.041389   0.000000  -0.012490
   15  S  1 YY    0.000000  -0.000192  -0.021775   0.000000   0.007267
   16  S  1 ZZ    0.000000   0.000553  -0.019614   0.000000   0.005224
   17  S  1 XY    0.000000   0.000000   0.000000   0.000000   0.000000
   18  S  1 XZ    0.000000   0.000000   0.000000  -0.016075   0.000000
   19  S  1 YZ    0.000431   0.000000   0.000000   0.000000   0.000000
   20  O  2  S    0.000000  -0.000017  -0.135463  -0.153503   0.092334
   21  O  2  S    0.000000  -0.000087   0.273569   0.308527  -0.192314
   22  O  2  S    0.000000   0.000196   0.337061   0.398258  -0.291231
   23  O  2  X    0.000000   0.000004   0.069081   0.060223   0.101901
   24  O  2  Y   -0.000001   0.000000   0.000000   0.000000   0.000000
   25  O  2  Z    0.000000   0.000000  -0.010269  -0.009415  -0.014511
   26  O  2  X    0.000000   0.000144   0.033774   0.037921   0.044921
   27  O  2  Y   -0.000034   0.000000   0.000000   0.000000   0.000000
   28  O  2  Z    0.000000  -0.000066  -0.004954  -0.006351  -0.004285
   29  O  2 XX    0.000000   0.000080   0.008198   0.007783   0.007517
   30  O  2 YY    0.000000  -0.000042  -0.003378  -0.003092  -0.004486
   31  O  2 ZZ    0.000000  -0.000038  -0.004820  -0.004691  -0.003031
   32  O  2 XY   -0.000013   0.000000   0.000000   0.000000   0.000000
   33  O  2 XZ    0.000000  -0.000043  -0.000359  -0.000397  -0.003204
   34  O  2 YZ   -0.000001   0.000000   0.000000   0.000000   0.000000
   35  O  3  S    0.000000  -0.000017  -0.135463   0.153503   0.092334
   36  O  3  S    0.000000  -0.000087   0.273569  -0.308527  -0.192314
   37  O  3  S    0.000000   0.000196   0.337061  -0.398258  -0.291231
   38  O  3  X    0.000000  -0.000004  -0.069081   0.060223  -0.101901
   39  O  3  Y   -0.000001   0.000000   0.000000   0.000000   0.000000
   40  O  3  Z    0.000000   0.000000  -0.010269   0.009415  -0.014511
   41  O  3  X    0.000000  -0.000144  -0.033774   0.037921  -0.044921
   42  O  3  Y   -0.000034   0.000000   0.000000   0.000000   0.000000
   43  O  3  Z    0.000000  -0.000066  -0.004954   0.006351  -0.004285
   44  O  3 XX    0.000000   0.000080   0.008198  -0.007783   0.007517
   45  O  3 YY    0.000000  -0.000042  -0.003378   0.003092  -0.004486
   46  O  3 ZZ    0.000000  -0.000038  -0.004820   0.004691  -0.003031
   47  O  3 XY    0.000013   0.000000   0.000000   0.000000   0.000000
   48  O  3 XZ    0.000000   0.000043   0.000359  -0.000397   0.003204
   49  O  3 YZ   -0.000001   0.000000   0.000000   0.000000   0.000000

                     11         12         13         14         15
                   -0.4319    -0.3812    -0.3803    -0.3142    -0.3098
                     B1         B2         A1         A2         B1  
    1  S  1  S    0.000000   0.000000  -0.007188   0.000000   0.000000
    2  S  1  S    0.000000   0.000000   0.023963   0.000000   0.000000
    3  S  1  S    0.000000   0.000000  -0.041237   0.000000   0.000000
    4  S  1  S    0.000000   0.000000  -0.082982   0.000000   0.000000
    5  S  1  X   -0.182126   0.000000   0.000000   0.000000  -0.016688
    6  S  1  Y    0.000000  -0.207482   0.000000   0.000000   0.000000
    7  S  1  Z    0.000000   0.000000  -0.207596   0.000000   0.000000
    8  S  1  X    0.429210   0.000000   0.000000   0.000000   0.038202
    9  S  1  Y    0.000000   0.488224   0.000000   0.000000   0.000000
   10  S  1  Z    0.000000   0.000000   0.487955   0.000000   0.000000
   11  S  1  X    0.098658   0.000000   0.000000   0.000000   0.052639
   12  S  1  Y    0.000000   0.326945   0.000000   0.000000   0.000000
   13  S  1  Z    0.000000   0.000000   0.322504   0.000000   0.000000
   14  S  1 XX    0.000000   0.000000  -0.001760   0.000000   0.000000
   15  S  1 YY    0.000000   0.000000  -0.013624   0.000000   0.000000
   16  S  1 ZZ    0.000000   0.000000   0.015384   0.000000   0.000000
   17  S  1 XY    0.000000   0.000000   0.000000  -0.079108   0.000000
   18  S  1 XZ    0.020824   0.000000   0.000000   0.000000  -0.076916
   19  S  1 YZ    0.000000   0.016625   0.000000   0.000000   0.000000
   20  O  2  S   -0.051638   0.000000   0.006151   0.000000  -0.002760
   21  O  2  S    0.116475   0.000000  -0.011631   0.000000   0.003034
   22  O  2  S    0.168297   0.000000  -0.028313   0.000000   0.025997
   23  O  2  X   -0.352148   0.000000   0.130346   0.000000   0.100133
   24  O  2  Y    0.000000   0.292359   0.000000   0.471950   0.000000
   25  O  2  Z    0.055003   0.000000   0.261143   0.000000   0.459585
   26  O  2  X   -0.228105   0.000000   0.082731   0.000000   0.077219
   27  O  2  Y    0.000000   0.183680   0.000000   0.336269   0.000000
   28  O  2  Z    0.037421   0.000000   0.164571   0.000000   0.326372
   29  O  2 XX   -0.014867   0.000000   0.006645   0.000000   0.003420
   30  O  2 YY    0.008198   0.000000  -0.001643   0.000000   0.000214
   31  O  2 ZZ    0.006670   0.000000  -0.005002   0.000000  -0.003634
   32  O  2 XY    0.000000   0.013510   0.000000   0.012619   0.000000
   33  O  2 XZ    0.005794   0.000000   0.011612   0.000000   0.012147
   34  O  2 YZ    0.000000  -0.002165   0.000000  -0.002236   0.000000
   35  O  3  S    0.051638   0.000000   0.006151   0.000000   0.002760
   36  O  3  S   -0.116475   0.000000  -0.011631   0.000000  -0.003034
   37  O  3  S   -0.168297   0.000000  -0.028313   0.000000  -0.025997
   38  O  3  X   -0.352148   0.000000  -0.130346   0.000000   0.100133
   39  O  3  Y    0.000000   0.292359   0.000000  -0.471950   0.000000
   40  O  3  Z   -0.055003   0.000000   0.261143   0.000000  -0.459585
   41  O  3  X   -0.228105   0.000000  -0.082731   0.000000   0.077219
   42  O  3  Y    0.000000   0.183680   0.000000  -0.336269   0.000000
   43  O  3  Z   -0.037421   0.000000   0.164571   0.000000  -0.326372
   44  O  3 XX    0.014867   0.000000   0.006645   0.000000  -0.003420
   45  O  3 YY   -0.008198   0.000000  -0.001643   0.000000  -0.000214
   46  O  3 ZZ   -0.006670   0.000000  -0.005002   0.000000   0.003634
   47  O  3 XY    0.000000  -0.013510   0.000000   0.012619   0.000000
   48  O  3 XZ    0.005794   0.000000  -0.011612   0.000000   0.012147
   49  O  3 YZ    0.000000  -0.002165   0.000000   0.002236   0.000000

                     16         17         18         19         20
                   -0.2719    -0.2334    -0.2195    -0.0048     0.3376
                     A1         B2         A1         B1         B1  
    1  S  1  S    0.025557   0.000000   0.012881   0.000000   0.000000
    2  S  1  S   -0.095131   0.000000  -0.041382   0.000000   0.000000
    3  S  1  S    0.138162   0.000000   0.079738   0.000000   0.000000
    4  S  1  S    0.418586   0.000000   0.194754   0.000000   0.000000
    5  S  1  X    0.000000   0.000000   0.000000  -0.246148   0.243214
    6  S  1  Y    0.000000  -0.201313   0.000000   0.000000   0.000000
    7  S  1  Z    0.047969   0.000000  -0.195298   0.000000   0.000000
    8  S  1  X    0.000000   0.000000   0.000000   0.649019  -0.972430
    9  S  1  Y    0.000000   0.500304   0.000000   0.000000   0.000000
   10  S  1  Z   -0.117430   0.000000   0.487572   0.000000   0.000000
   11  S  1  X    0.000000   0.000000   0.000000   0.843463   1.771161
   12  S  1  Y    0.000000   0.362074   0.000000   0.000000   0.000000
   13  S  1  Z   -0.045428   0.000000   0.373412   0.000000   0.000000
   14  S  1 XX   -0.130451   0.000000  -0.059922   0.000000   0.000000
   15  S  1 YY    0.064709   0.000000   0.034423   0.000000   0.000000
   16  S  1 ZZ    0.065742   0.000000   0.025498   0.000000   0.000000
   17  S  1 XY    0.000000   0.000000   0.000000   0.000000   0.000000
   18  S  1 XZ    0.000000   0.000000   0.000000  -0.069351  -0.180144
   19  S  1 YZ    0.000000  -0.004197   0.000000   0.000000   0.000000
   20  O  2  S    0.001790   0.000000   0.009585  -0.055991  -0.032802
   21  O  2  S   -0.003622   0.000000  -0.020053   0.110978   0.018932
   22  O  2  S   -0.038837   0.000000  -0.064555   0.421433   0.631292
   23  O  2  X   -0.379834   0.000000  -0.263141   0.339870  -0.214491
   24  O  2  Y    0.000000  -0.398504   0.000000   0.000000   0.000000
   25  O  2  Z    0.277975   0.000000  -0.307601  -0.127859  -0.063083
   26  O  2  X   -0.274037   0.000000  -0.198642   0.367223   0.330149
   27  O  2  Y    0.000000  -0.292605   0.000000   0.000000   0.000000
   28  O  2  Z    0.198978   0.000000  -0.226603  -0.107780  -0.051591
   29  O  2 XX   -0.006344   0.000000  -0.001470  -0.002781   0.051189
   30  O  2 YY    0.003931   0.000000   0.000953   0.002512  -0.024768
   31  O  2 ZZ    0.002413   0.000000   0.000517   0.000269  -0.026421
   32  O  2 XY    0.000000  -0.000017   0.000000   0.000000   0.000000
   33  O  2 XZ    0.005883   0.000000   0.001859   0.005953  -0.003963
   34  O  2 YZ    0.000000   0.000011   0.000000   0.000000   0.000000
   35  O  3  S    0.001790   0.000000   0.009585   0.055991   0.032802
   36  O  3  S   -0.003622   0.000000  -0.020053  -0.110978  -0.018932
   37  O  3  S   -0.038837   0.000000  -0.064555  -0.421433  -0.631292
   38  O  3  X    0.379834   0.000000   0.263141   0.339870  -0.214491
   39  O  3  Y    0.000000  -0.398504   0.000000   0.000000   0.000000
   40  O  3  Z    0.277975   0.000000  -0.307601   0.127859   0.063083
   41  O  3  X    0.274037   0.000000   0.198642   0.367223   0.330149
   42  O  3  Y    0.000000  -0.292605   0.000000   0.000000   0.000000
   43  O  3  Z    0.198978   0.000000  -0.226603   0.107780   0.051591
   44  O  3 XX   -0.006344   0.000000  -0.001470   0.002781  -0.051189
   45  O  3 YY    0.003931   0.000000   0.000953  -0.002512   0.024768
   46  O  3 ZZ    0.002413   0.000000   0.000517  -0.000269   0.026421
   47  O  3 XY    0.000000   0.000017   0.000000   0.000000   0.000000
   48  O  3 XZ   -0.005883   0.000000  -0.001859   0.005953  -0.003963
   49  O  3 YZ    0.000000   0.000011   0.000000   0.000000   0.000000

                     21         22         23         24         25
                    0.3692     0.3715     0.3888     0.4658     0.5029
                     A1         B2         A1         A2         B2  
    1  S  1  S   -0.043472   0.000000  -0.102220   0.000000   0.000000
    2  S  1  S   -0.170508   0.000000  -0.352404   0.000000   0.000000
    3  S  1  S   -0.688471   0.000000  -1.557577   0.000000   0.000000
    4  S  1  S    0.886139   0.000000   1.800009   0.000000   0.000000
    5  S  1  X    0.000000   0.000000   0.000000   0.000000   0.000000
    6  S  1  Y    0.000000   0.296975   0.000000   0.000000   0.023091
    7  S  1  Z    0.268871   0.000000  -0.123149   0.000000   0.000000
    8  S  1  X    0.000000   0.000000   0.000000   0.000000   0.000000
    9  S  1  Y    0.000000  -1.147691   0.000000   0.000000  -0.083920
   10  S  1  Z   -1.039855   0.000000   0.475402   0.000000   0.000000
   11  S  1  X    0.000000   0.000000   0.000000   0.000000   0.000000
   12  S  1  Y    0.000000   1.226984   0.000000   0.000000   0.052167
   13  S  1  Z    1.148420   0.000000  -0.469666   0.000000   0.000000
   14  S  1 XX   -0.102763   0.000000  -0.269485   0.000000   0.000000
   15  S  1 YY    0.115066   0.000000   0.110611   0.000000   0.000000
   16  S  1 ZZ   -0.012304   0.000000   0.158874   0.000000   0.000000
   17  S  1 XY    0.000000   0.000000   0.000000   0.835233   0.000000
   18  S  1 XZ    0.000000   0.000000   0.000000   0.000000   0.000000
   19  S  1 YZ    0.000000  -0.075583   0.000000   0.000000   0.988750
   20  O  2  S    0.008179   0.000000   0.008334   0.000000   0.000000
   21  O  2  S   -0.005537   0.000000  -0.014424   0.000000   0.000000
   22  O  2  S   -0.166008   0.000000  -0.156264   0.000000   0.000000
   23  O  2  X    0.057771   0.000000   0.091620   0.000000   0.000000
   24  O  2  Y    0.000000  -0.109152   0.000000   0.349136  -0.083354
   25  O  2  Z   -0.128401   0.000000  -0.009055   0.000000   0.000000
   26  O  2  X   -0.123000   0.000000  -0.122990   0.000000   0.000000
   27  O  2  Y    0.000000  -0.076780   0.000000  -0.212972   0.052259
   28  O  2  Z   -0.045206   0.000000   0.065205   0.000000   0.000000
   29  O  2 XX   -0.028370   0.000000  -0.038355   0.000000   0.000000
   30  O  2 YY    0.015085   0.000000   0.021206   0.000000   0.000000
   31  O  2 ZZ    0.013284   0.000000   0.017149   0.000000   0.000000
   32  O  2 XY    0.000000  -0.007182   0.000000  -0.055267   0.013698
   33  O  2 XZ    0.004493   0.000000   0.020586   0.000000   0.000000
   34  O  2 YZ    0.000000   0.000304   0.000000   0.011645   0.013357
   35  O  3  S    0.008179   0.000000   0.008334   0.000000   0.000000
   36  O  3  S   -0.005537   0.000000  -0.014424   0.000000   0.000000
   37  O  3  S   -0.166008   0.000000  -0.156264   0.000000   0.000000
   38  O  3  X   -0.057771   0.000000  -0.091620   0.000000   0.000000
   39  O  3  Y    0.000000  -0.109152   0.000000  -0.349136  -0.083354
   40  O  3  Z   -0.128401   0.000000  -0.009055   0.000000   0.000000
   41  O  3  X    0.123000   0.000000   0.122990   0.000000   0.000000
   42  O  3  Y    0.000000  -0.076780   0.000000   0.212972   0.052259
   43  O  3  Z   -0.045206   0.000000   0.065205   0.000000   0.000000
   44  O  3 XX   -0.028370   0.000000  -0.038355   0.000000   0.000000
   45  O  3 YY    0.015085   0.000000   0.021206   0.000000   0.000000
   46  O  3 ZZ    0.013284   0.000000   0.017149   0.000000   0.000000
   47  O  3 XY    0.000000   0.007182   0.000000  -0.055267  -0.013698
   48  O  3 XZ   -0.004493   0.000000  -0.020586   0.000000   0.000000
   49  O  3 YZ    0.000000   0.000304   0.000000  -0.011645   0.013357

                     26         27         28         29         30
                    0.5030     0.5062     0.7153     0.7929     0.8019
                     A1         B1         A1         B1         A2  
    1  S  1  S    0.001452   0.000000  -0.029810   0.000000   0.000000
    2  S  1  S    0.004224   0.000000  -0.191047   0.000000   0.000000
    3  S  1  S    0.021123   0.000000  -0.563239   0.000000   0.000000
    4  S  1  S   -0.022144   0.000000   1.212575   0.000000   0.000000
    5  S  1  X    0.000000   0.040469   0.000000  -0.060805   0.000000
    6  S  1  Y    0.000000   0.000000   0.000000   0.000000   0.000000
    7  S  1  Z    0.024085   0.000000  -0.007204   0.000000   0.000000
    8  S  1  X    0.000000  -0.196381   0.000000   0.319014   0.000000
    9  S  1  Y    0.000000   0.000000   0.000000   0.000000   0.000000
   10  S  1  Z   -0.087682   0.000000   0.019966   0.000000   0.000000
   11  S  1  X    0.000000   0.704197   0.000000  -0.072779   0.000000
   12  S  1  Y    0.000000   0.000000   0.000000   0.000000   0.000000
   13  S  1  Z    0.055591   0.000000   0.197468   0.000000   0.000000
   14  S  1 XX   -0.024735   0.000000   0.867987   0.000000   0.000000
   15  S  1 YY   -0.843116   0.000000  -0.483482   0.000000   0.000000
   16  S  1 ZZ    0.867850   0.000000  -0.384504   0.000000   0.000000
   17  S  1 XY    0.000000   0.000000   0.000000   0.000000   0.566117
   18  S  1 XZ    0.000000   0.820347   0.000000   0.463905   0.000000
   19  S  1 YZ    0.000000   0.000000   0.000000   0.000000   0.000000
   20  O  2  S   -0.000244  -0.031672   0.059046  -0.014901   0.000000
   21  O  2  S    0.001725   0.120513  -0.350906   0.110441   0.000000
   22  O  2  S   -0.001289   0.229778  -0.049027  -0.059926   0.000000
   23  O  2  X   -0.013253   0.054762   0.161587  -0.374816   0.000000
   24  O  2  Y    0.000000   0.000000   0.000000   0.000000  -0.547830
   25  O  2  Z   -0.084255   0.322084   0.118283  -0.411084   0.000000
   26  O  2  X    0.010820   0.186092  -0.679850   0.579052   0.000000
   27  O  2  Y    0.000000   0.000000   0.000000   0.000000   0.726548
   28  O  2  Z    0.051562  -0.268706  -0.050909   0.521757   0.000000
   29  O  2 XX    0.003679  -0.011087   0.039613  -0.051631   0.000000
   30  O  2 YY   -0.013376  -0.003988  -0.024744   0.019565   0.000000
   31  O  2 ZZ    0.009696   0.015076  -0.014869   0.032066   0.000000
   32  O  2 XY    0.000000   0.000000   0.000000   0.000000  -0.056878
   33  O  2 XZ    0.013425  -0.051222  -0.027548  -0.027418   0.000000
   34  O  2 YZ    0.000000   0.000000   0.000000   0.000000   0.011728
   35  O  3  S   -0.000244   0.031672   0.059046   0.014901   0.000000
   36  O  3  S    0.001725  -0.120513  -0.350906  -0.110441   0.000000
   37  O  3  S   -0.001289  -0.229778  -0.049027   0.059926   0.000000
   38  O  3  X    0.013253   0.054762  -0.161587  -0.374816   0.000000
   39  O  3  Y    0.000000   0.000000   0.000000   0.000000   0.547830
   40  O  3  Z   -0.084255  -0.322084   0.118283   0.411084   0.000000
   41  O  3  X   -0.010820   0.186092   0.679850   0.579052   0.000000
   42  O  3  Y    0.000000   0.000000   0.000000   0.000000  -0.726548
   43  O  3  Z    0.051562   0.268706  -0.050909  -0.521757   0.000000
   44  O  3 XX    0.003679   0.011087   0.039613   0.051631   0.000000
   45  O  3 YY   -0.013376   0.003988  -0.024744  -0.019565   0.000000
   46  O  3 ZZ    0.009696  -0.015076  -0.014869  -0.032066   0.000000
   47  O  3 XY    0.000000   0.000000   0.000000   0.000000  -0.056878
   48  O  3 XZ   -0.013425  -0.051222   0.027548  -0.027418   0.000000
   49  O  3 YZ    0.000000   0.000000   0.000000   0.000000  -0.011728

                     31         32         33         34         35
                    0.8071     0.8086     0.8250     0.8387     1.4520
                     B2         A1         B1         A1         A1  
    1  S  1  S    0.000000   0.016615   0.000000  -0.036125   0.021277
    2  S  1  S    0.000000   0.041393   0.000000  -0.118943   0.224542
    3  S  1  S    0.000000   0.242222   0.000000  -0.558280   0.507460
    4  S  1  S    0.000000   0.024191   0.000000   0.271932  -1.383621
    5  S  1  X    0.000000   0.000000  -0.092339   0.000000   0.000000
    6  S  1  Y   -0.029391   0.000000   0.000000   0.000000   0.000000
    7  S  1  Z    0.000000  -0.034771   0.000000  -0.000745   0.005277
    8  S  1  X    0.000000   0.000000   0.484342   0.000000   0.000000
    9  S  1  Y    0.157406   0.000000   0.000000   0.000000   0.000000
   10  S  1  Z    0.000000   0.185930   0.000000  -0.001667  -0.019580
   11  S  1  X    0.000000   0.000000  -0.100897   0.000000   0.000000
   12  S  1  Y   -0.544493   0.000000   0.000000   0.000000   0.000000
   13  S  1  Z    0.000000  -0.475379   0.000000  -0.202663  -0.206146
   14  S  1 XX    0.000000   0.063752   0.000000   0.435025  -0.455164
   15  S  1 YY    0.000000   0.064147   0.000000  -0.179124   0.244288
   16  S  1 ZZ    0.000000  -0.127899   0.000000  -0.255901   0.210876
   17  S  1 XY    0.000000   0.000000   0.000000   0.000000   0.000000
   18  S  1 XZ    0.000000   0.000000  -0.317792   0.000000   0.000000
   19  S  1 YZ   -0.127470   0.000000   0.000000   0.000000   0.000000
   20  O  2  S    0.000000   0.005785  -0.013858   0.007363   0.016717
   21  O  2  S    0.000000  -0.044737   0.152738   0.002728  -1.085877
   22  O  2  S    0.000000   0.039206  -0.130690  -0.072101   1.395260
   23  O  2  X    0.000000   0.209961  -0.450650  -0.575885  -0.103302
   24  O  2  Y   -0.626419   0.000000   0.000000   0.000000   0.000000
   25  O  2  Z    0.000000  -0.587573   0.369783  -0.177810  -0.014615
   26  O  2  X    0.000000  -0.285024   0.612542   0.593602   0.539380
   27  O  2  Y    0.844379   0.000000   0.000000   0.000000   0.000000
   28  O  2  Z    0.000000   0.789382  -0.496182   0.291265  -0.025741
   29  O  2 XX    0.000000   0.018332  -0.029071  -0.003690  -0.187618
   30  O  2 YY    0.000000  -0.009925   0.021791  -0.001227   0.101238
   31  O  2 ZZ    0.000000  -0.008407   0.007281   0.004918   0.086380
   32  O  2 XY   -0.019723   0.000000   0.000000   0.000000   0.000000
   33  O  2 XZ    0.000000  -0.022944   0.045674  -0.024839   0.061395
   34  O  2 YZ    0.000334   0.000000   0.000000   0.000000   0.000000
   35  O  3  S    0.000000   0.005785   0.013858   0.007363   0.016717
   36  O  3  S    0.000000  -0.044737  -0.152738   0.002728  -1.085877
   37  O  3  S    0.000000   0.039206   0.130690  -0.072101   1.395260
   38  O  3  X    0.000000  -0.209961  -0.450650   0.575885   0.103302
   39  O  3  Y   -0.626419   0.000000   0.000000   0.000000   0.000000
   40  O  3  Z    0.000000  -0.587573  -0.369783  -0.177810  -0.014615
   41  O  3  X    0.000000   0.285024   0.612542  -0.593602  -0.539380
   42  O  3  Y    0.844379   0.000000   0.000000   0.000000   0.000000
   43  O  3  Z    0.000000   0.789382   0.496182   0.291265  -0.025741
   44  O  3 XX    0.000000   0.018332   0.029071  -0.003690  -0.187618
   45  O  3 YY    0.000000  -0.009925  -0.021791  -0.001227   0.101238
   46  O  3 ZZ    0.000000  -0.008407  -0.007281   0.004918   0.086380
   47  O  3 XY    0.019723   0.000000   0.000000   0.000000   0.000000
   48  O  3 XZ    0.000000   0.022944   0.045674   0.024839  -0.061395
   49  O  3 YZ    0.000334   0.000000   0.000000   0.000000   0.000000

                     36         37         38         39         40
                    1.7122     2.0748     2.0748     2.0774     2.0780
                     B1         A2         B1         B2         A1  
    1  S  1  S    0.000000   0.000000   0.000000   0.000000   0.000120
    2  S  1  S    0.000000   0.000000   0.000000   0.000000  -0.003719
    3  S  1  S    0.000000   0.000000   0.000000   0.000000  -0.003269
    4  S  1  S    0.000000   0.000000   0.000000   0.000000   0.023106
    5  S  1  X   -0.027236   0.000000  -0.000442   0.000000   0.000000
    6  S  1  Y    0.000000   0.000000   0.000000   0.005419   0.000000
    7  S  1  Z    0.000000   0.000000   0.000000   0.000000  -0.003001
    8  S  1  X    0.079436   0.000000   0.001005   0.000000   0.000000
    9  S  1  Y    0.000000   0.000000   0.000000  -0.004678   0.000000
   10  S  1  Z    0.000000   0.000000   0.000000   0.000000   0.003640
   11  S  1  X    1.456455   0.000000   0.002558   0.000000   0.000000
   12  S  1  Y    0.000000   0.000000   0.000000  -0.058193   0.000000
   13  S  1  Z    0.000000   0.000000   0.000000   0.000000   0.032075
   14  S  1 XX    0.000000   0.000000   0.000000   0.000000  -0.000012
   15  S  1 YY    0.000000   0.000000   0.000000   0.000000  -0.044188
   16  S  1 ZZ    0.000000   0.000000   0.000000   0.000000   0.044199
   17  S  1 XY    0.000000   0.023542   0.000000   0.000000   0.000000
   18  S  1 XZ    0.178621   0.000000  -0.023579   0.000000   0.000000
   19  S  1 YZ    0.000000   0.000000   0.000000  -0.057983   0.000000
   20  O  2  S    0.006599   0.000000   0.000229   0.000000   0.000107
   21  O  2  S   -1.229523   0.000000  -0.001272   0.000000   0.013844
   22  O  2  S    1.886264   0.000000   0.000767   0.000000  -0.021372
   23  O  2  X   -0.122276   0.000000  -0.000476   0.000000   0.005502
   24  O  2  Y    0.000000  -0.003410   0.000000  -0.016046   0.000000
   25  O  2  Z    0.056048   0.000000   0.003623   0.000000   0.008109
   26  O  2  X    0.608072   0.000000  -0.000703   0.000000  -0.015193
   27  O  2  Y    0.000000   0.005959   0.000000   0.030143   0.000000
   28  O  2  Z   -0.184944   0.000000  -0.005915   0.000000  -0.015067
   29  O  2 XX   -0.187454   0.000000  -0.042593   0.000000  -0.071838
   30  O  2 YY    0.094930   0.000000   0.607372   0.000000   0.607314
   31  O  2 ZZ    0.092524   0.000000  -0.564779   0.000000  -0.535476
   32  O  2 XY    0.000000   0.202028   0.000000   0.394641   0.000000
   33  O  2 XZ    0.042751   0.000000  -0.200620   0.000000  -0.244268
   34  O  2 YZ    0.000000   0.677663   0.000000   0.587510   0.000000
   35  O  3  S   -0.006599   0.000000  -0.000229   0.000000   0.000107
   36  O  3  S    1.229523   0.000000   0.001272   0.000000   0.013844
   37  O  3  S   -1.886264   0.000000  -0.000767   0.000000  -0.021372
   38  O  3  X   -0.122276   0.000000  -0.000476   0.000000  -0.005502
   39  O  3  Y    0.000000   0.003410   0.000000  -0.016046   0.000000
   40  O  3  Z   -0.056048   0.000000  -0.003623   0.000000   0.008109
   41  O  3  X    0.608072   0.000000  -0.000703   0.000000   0.015193
   42  O  3  Y    0.000000  -0.005959   0.000000   0.030143   0.000000
   43  O  3  Z    0.184944   0.000000   0.005915   0.000000  -0.015067
   44  O  3 XX    0.187454   0.000000   0.042593   0.000000  -0.071838
   45  O  3 YY   -0.094930   0.000000  -0.607372   0.000000   0.607314
   46  O  3 ZZ   -0.092524   0.000000   0.564779   0.000000  -0.535476
   47  O  3 XY    0.000000   0.202028   0.000000  -0.394641   0.000000
   48  O  3 XZ    0.042751   0.000000  -0.200620   0.000000   0.244268
   49  O  3 YZ    0.000000  -0.677663   0.000000   0.587510   0.000000

                     41         42         43         44         45
                    2.0839     2.0918     2.1394     2.1506     2.3252
                     B2         A1         B1         A2         B1  
    1  S  1  S    0.000000  -0.001362   0.000000   0.000000   0.000000
    2  S  1  S    0.000000   0.012574   0.000000   0.000000   0.000000
    3  S  1  S    0.000000   0.000530   0.000000   0.000000   0.000000
    4  S  1  S    0.000000  -0.079583   0.000000   0.000000   0.000000
    5  S  1  X    0.000000   0.000000   0.030858   0.000000  -0.138308
    6  S  1  Y    0.012786   0.000000   0.000000   0.000000   0.000000
    7  S  1  Z    0.000000   0.016065   0.000000   0.000000   0.000000
    8  S  1  X    0.000000   0.000000  -0.111890   0.000000   0.518402
    9  S  1  Y   -0.013164   0.000000   0.000000   0.000000   0.000000
   10  S  1  Z    0.000000  -0.023576   0.000000   0.000000   0.000000
   11  S  1  X    0.000000   0.000000  -0.053456   0.000000   0.365783
   12  S  1  Y   -0.125408   0.000000   0.000000   0.000000   0.000000
   13  S  1  Z    0.000000  -0.142301   0.000000   0.000000   0.000000
   14  S  1 XX    0.000000   0.012976   0.000000   0.000000   0.000000
   15  S  1 YY    0.000000   0.028295   0.000000   0.000000   0.000000
   16  S  1 ZZ    0.000000  -0.041270   0.000000   0.000000   0.000000
   17  S  1 XY    0.000000   0.000000   0.000000   0.268180   0.000000
   18  S  1 XZ    0.000000   0.000000   0.217151   0.000000   0.235649
   19  S  1 YZ   -0.027124   0.000000   0.000000   0.000000   0.000000
   20  O  2  S    0.000000   0.000758  -0.000134   0.000000  -0.005136
   21  O  2  S    0.000000  -0.055636   0.071411   0.000000  -0.433991
   22  O  2  S    0.000000   0.078316  -0.101945   0.000000   0.679632
   23  O  2  X    0.000000  -0.025687   0.025695   0.000000  -0.108738
   24  O  2  Y   -0.032971   0.000000   0.000000  -0.034696   0.000000
   25  O  2  Z    0.000000  -0.033514  -0.036900   0.000000   0.013511
   26  O  2  X    0.000000   0.060102  -0.055119   0.000000   0.400233
   27  O  2  Y    0.060224   0.000000   0.000000   0.068189   0.000000
   28  O  2  Z    0.000000   0.060548   0.070451   0.000000  -0.055361
   29  O  2 XX    0.000000   0.276936   0.065764   0.000000   0.702425
   30  O  2 YY    0.000000   0.079937   0.143768   0.000000  -0.331484
   31  O  2 ZZ    0.000000  -0.356872  -0.209532   0.000000  -0.370940
   32  O  2 XY    0.591475   0.000000   0.000000   0.680706   0.000000
   33  O  2 XZ    0.000000   0.604134   0.675822   0.000000  -0.070621
   34  O  2 YZ   -0.393621   0.000000   0.000000  -0.202304   0.000000
   35  O  3  S    0.000000   0.000758   0.000134   0.000000   0.005136
   36  O  3  S    0.000000  -0.055636  -0.071411   0.000000   0.433991
   37  O  3  S    0.000000   0.078316   0.101945   0.000000  -0.679632
   38  O  3  X    0.000000   0.025687   0.025695   0.000000  -0.108738
   39  O  3  Y   -0.032971   0.000000   0.000000   0.034696   0.000000
   40  O  3  Z    0.000000  -0.033514   0.036900   0.000000  -0.013511
   41  O  3  X    0.000000  -0.060102  -0.055119   0.000000   0.400233
   42  O  3  Y    0.060224   0.000000   0.000000  -0.068189   0.000000
   43  O  3  Z    0.000000   0.060548  -0.070451   0.000000   0.055361
   44  O  3 XX    0.000000   0.276936  -0.065764   0.000000  -0.702425
   45  O  3 YY    0.000000   0.079937  -0.143768   0.000000   0.331484
   46  O  3 ZZ    0.000000  -0.356872   0.209532   0.000000   0.370940
   47  O  3 XY   -0.591475   0.000000   0.000000   0.680706   0.000000
   48  O  3 XZ    0.000000  -0.604134   0.675822   0.000000  -0.070621
   49  O  3 YZ   -0.393621   0.000000   0.000000   0.202304   0.000000

                     46
                    2.5444
                     A1  
    1  S  1  S    0.006718
    2  S  1  S   -0.158290
    3  S  1  S   -0.123211
    4  S  1  S    0.953917
    5  S  1  X    0.000000
    6  S  1  Y    0.000000
    7  S  1  Z   -0.025848
    8  S  1  X    0.000000
    9  S  1  Y    0.000000
   10  S  1  Z    0.101093
   11  S  1  X    0.000000
   12  S  1  Y    0.000000
   13  S  1  Z    0.070075
   14  S  1 XX    0.700564
   15  S  1 YY   -0.362268
   16  S  1 ZZ   -0.338296
   17  S  1 XY    0.000000
   18  S  1 XZ    0.000000
   19  S  1 YZ    0.000000
   20  O  2  S    0.013790
   21  O  2  S    0.462663
   22  O  2  S   -0.764269
   23  O  2  X    0.075645
   24  O  2  Y    0.000000
   25  O  2  Z   -0.015756
   26  O  2  X   -0.502265
   27  O  2  Y    0.000000
   28  O  2  Z    0.096584
   29  O  2 XX   -0.673794
   30  O  2 YY    0.367069
   31  O  2 ZZ    0.306726
   32  O  2 XY    0.000000
   33  O  2 XZ    0.294059
   34  O  2 YZ    0.000000
   35  O  3  S    0.013790
   36  O  3  S    0.462663
   37  O  3  S   -0.764269
   38  O  3  X   -0.075645
   39  O  3  Y    0.000000
   40  O  3  Z   -0.015756
   41  O  3  X    0.502265
   42  O  3  Y    0.000000
   43  O  3  Z    0.096584
   44  O  3 XX   -0.673794
   45  O  3 YY    0.367069
   46  O  3 ZZ    0.306726
   47  O  3 XY    0.000000
   48  O  3 XZ   -0.294059
   49  O  3 YZ    0.000000
 ...... END OF RHF CALCULATION ......
 STEP CPU TIME =     4.19 TOTAL CPU TIME =        4.4 (    0.1 MIN)
 TOTAL WALL CLOCK TIME=        4.4 SECONDS, CPU UTILIZATION IS 100.00%

     ---------------------------------------------------------------------
     PROPERTIES FOR THE PBE      DFT FUNCTIONAL (RHF  TYPE) DENSITY MATRIX
     ---------------------------------------------------------------------

          -----------------
          ENERGY COMPONENTS
          -----------------

         WAVEFUNCTION NORMALIZATION =       1.0000000000

                ONE ELECTRON ENERGY =    -924.1611702866
                TWO ELECTRON ENERGY =     839.3476830830
           NUCLEAR REPULSION ENERGY =      84.8134872036
                                      ------------------
                       TOTAL ENERGY =       0.0000000000

 ELECTRON-ELECTRON POTENTIAL ENERGY =     839.3476830830
  NUCLEUS-ELECTRON POTENTIAL ENERGY =   -1470.9075190143
   NUCLEUS-NUCLEUS POTENTIAL ENERGY =      84.8134872036
                                      ------------------
             TOTAL POTENTIAL ENERGY =    -546.7463487277
               TOTAL KINETIC ENERGY =     546.7463487277
                 VIRIAL RATIO (V/T) =       1.0000000000

          ---------------------------------------
          MULLIKEN AND LOWDIN POPULATION ANALYSES
          ---------------------------------------

     ATOMIC MULLIKEN POPULATION IN EACH MOLECULAR ORBITAL

                      1          2          3          4          5

                  2.000000   2.000000   2.000000   2.000000   2.000000

    1             2.000001   0.001173   0.000365   2.000188   1.999939
    2             0.000000   0.999414   0.999817  -0.000094   0.000030
    3             0.000000   0.999414   0.999817  -0.000094   0.000030

                      6          7          8          9         10

                  2.000000   2.000000   2.000000   2.000000   2.000000

    1             2.000002   1.999994   0.504654   0.158357   1.297608
    2            -0.000001   0.000003   0.747673   0.920821   0.351196
    3            -0.000001   0.000003   0.747673   0.920821   0.351196

                     11         12         13         14         15

                  2.000000   2.000000   2.000000   2.000000   2.000000

    1             0.569263   1.157973   1.162532   0.037226   0.048173
    2             0.715369   0.421014   0.418734   0.981387   0.975913
    3             0.715369   0.421014   0.418734   0.981387   0.975913

                     16

                  2.000000

    1             0.326282
    2             0.836859
    3             0.836859

               ----- POPULATIONS IN EACH AO -----
                             MULLIKEN      LOWDIN
              1  S  1  S      2.00020     1.99614
              2  S  1  S      2.01088     1.97609
              3  S  1  S      1.03330     0.66803
              4  S  1  S      0.93324     0.57573
              5  S  1  X      1.99625     1.95215
              6  S  1  Y      1.99628     1.95537
              7  S  1  Z      1.99645     1.95686
              8  S  1  X      0.62556     0.57287
              9  S  1  Y      0.66040     0.64302
             10  S  1  Z      0.69832     0.68006
             11  S  1  X      0.11430     0.30725
             12  S  1  Y      0.50021     0.54513
             13  S  1  Z      0.49287     0.54459
             14  S  1 XX      0.03237     0.26597
             15  S  1 YY      0.09399     0.29565
             16  S  1 ZZ      0.03723     0.29236
             17  S  1 XY      0.04079     0.04335
             18  S  1 XZ      0.00108     0.04887
             19  S  1 YZ      0.00000     0.00100
             20  O  2  S      1.99806     1.98128
             21  O  2  S      0.85823     0.67378
             22  O  2  S      1.11025     0.60954
             23  O  2  X      0.86800     0.83485
             24  O  2  Y      0.83627     0.80538
             25  O  2  Z      0.97184     0.94118
             26  O  2  X      0.51843     0.58658
             27  O  2  Y      0.56405     0.59816
             28  O  2  Z      0.63429     0.66798
             29  O  2 XX      0.00118     0.21281
             30  O  2 YY      0.00337     0.21306
             31  O  2 ZZ      0.00202     0.20997
             32  O  2 XY      0.00208     0.00245
             33  O  2 XZ      0.00006     0.00267
             34  O  2 YZ      0.00000     0.00007
             35  O  3  S      1.99806     1.98128
             36  O  3  S      0.85823     0.67378
             37  O  3  S      1.11025     0.60954
             38  O  3  X      0.86800     0.83485
             39  O  3  Y      0.83627     0.80538
             40  O  3  Z      0.97184     0.94118
             41  O  3  X      0.51843     0.58658
             42  O  3  Y      0.56405     0.59816
             43  O  3  Z      0.63429     0.66798
             44  O  3 XX      0.00118     0.21281
             45  O  3 YY      0.00337     0.21306
             46  O  3 ZZ      0.00202     0.20997
             47  O  3 XY      0.00208     0.00245
             48  O  3 XZ      0.00006     0.00267
             49  O  3 YZ      0.00000     0.00007

          ----- MULLIKEN ATOMIC OVERLAP POPULATIONS -----
          (OFF-DIAGONAL ELEMENTS NEED TO BE MULTIPLIED BY 2)

             1           2           3

    1   14.9437917
    2    0.1599697   8.2060014
    3    0.1599697   0.0021632   8.2060014

          TOTAL MULLIKEN AND LOWDIN ATOMIC POPULATIONS
       ATOM         MULL.POP.    CHARGE          LOW.POP.     CHARGE
    1 S            15.263731    0.736269        15.320484    0.679516
    2 O             8.368134   -0.368134         8.339758   -0.339758
    3 O             8.368134   -0.368134         8.339758   -0.339758

          MULLIKEN SPHERICAL HARMONIC POPULATIONS
       ATOM           S       P       D      F      G      H      I    TOTAL
    1 S             5.98    9.08    0.21   0.00   0.00   0.00   0.00   15.26
    2 O             3.97    4.39    0.01   0.00   0.00   0.00   0.00    8.37
    3 O             3.97    4.39    0.01   0.00   0.00   0.00   0.00    8.37

          -------------------------------
          BOND ORDER AND VALENCE ANALYSIS     BOND ORDER THRESHOLD=0.050
          -------------------------------

                   BOND                       BOND                       BOND
  ATOM PAIR DIST  ORDER      ATOM PAIR DIST  ORDER      ATOM PAIR DIST  ORDER
    1   2  1.800  1.579        1   3  1.800  1.579        2   3  3.545  0.641

                       TOTAL       BONDED        FREE
      ATOM            VALENCE     VALENCE     VALENCE
    1 S                 3.159       3.159       0.000
    2 O                 2.221       2.221       0.000
    3 O                 2.221       2.221       0.000

          ---------------------
          ELECTROSTATIC MOMENTS
          ---------------------

 POINT   1           X           Y           Z (BOHR)    CHARGE
                 0.000000    0.000000    0.000000        0.00 (A.U.)
         DX          DY          DZ         /D/  (DEBYE)
     0.000000    0.000000   -0.597342    0.597342
 ...... END OF PROPERTY EVALUATION ......
 STEP CPU TIME =     0.01 TOTAL CPU TIME =        4.4 (    0.1 MIN)
 TOTAL WALL CLOCK TIME=        4.4 SECONDS, CPU UTILIZATION IS 100.00%
               580000  WORDS OF DYNAMIC MEMORY USED
 EXECUTION OF GAMESS TERMINATED NORMALLY Thu Feb 26 00:21:08 2015
 DDI: 263624 bytes (0.3 MB / 0 MWords) used by master data server.

 ----------------------------------------
 CPU timing information for all processes
 ========================================
 0: 4.341 + 0.35 = 4.377
 ----------------------------------------
 ddikick.x: exited gracefully.
----- accounting info -----
Files used on the master node dftfe.crc.nd.edu were:
-rw-r--r-- 1 pmehta1 campus   37475 Feb 26 00:21 /tmp/gamess.dat
-rw-r--r-- 1 pmehta1 campus     142 Feb 26 00:21 /tmp/gamess.F05
-rw-r--r-- 1 pmehta1 campus 1800240 Feb 26 00:21 /tmp/gamess.F08
-rw-r--r-- 1 pmehta1 campus 1220440 Feb 26 00:21 /tmp/gamess.F10
Thu Feb 26 00:21:11 EST 2015
0.250u 0.171s 0:07.82 5.3%	0+0k 0+104io 0pf+0w
