----- GAMESS execution script 'rungms' -----
This job is running on host dftfe.crc.nd.edu
under operating system Linux at Thu Feb 26 00:22:43 EST 2015
Available scratch disk space (Kbyte units) at beginning of the job is
Filesystem     1K-blocks     Used Available Use% Mounted on
/dev/sda2      147771864 22818776 117446656  17% /
GAMESS temporary binary files will be written to /tmp
GAMESS supplementary output files will be written to /tmp
Copying input file gamess.inp to your run's scratch directory...

 Distributed Data Interface kickoff program.
 Initiating 1 compute processes on 1 nodes to run the following command:
 /opt/crc/gamess/2012R1/gamess/gamess.00.x gamess 

          ******************************************************
          *         GAMESS VERSION =  1 MAY 2012 (R1)          *
          *             FROM IOWA STATE UNIVERSITY             *
          * M.W.SCHMIDT, K.K.BALDRIDGE, J.A.BOATZ, S.T.ELBERT, *
          *   M.S.GORDON, J.H.JENSEN, S.KOSEKI, N.MATSUNAGA,   *
          *          K.A.NGUYEN, S.J.SU, T.L.WINDUS,           *
          *       TOGETHER WITH M.DUPUIS, J.A.MONTGOMERY       *
          *         J.COMPUT.CHEM.  14, 1347-1363(1993)        *
          **************** 64 BIT LINUX VERSION ****************

  SINCE 1993, STUDENTS AND POSTDOCS WORKING AT IOWA STATE UNIVERSITY
  AND ALSO IN THEIR VARIOUS JOBS AFTER LEAVING ISU HAVE MADE IMPORTANT
  CONTRIBUTIONS TO THE CODE:
     IVANA ADAMOVIC, CHRISTINE AIKENS, YURI ALEXEEV, POOJA ARORA,
     ANDREY ASADCHEV, ROB BELL, PRADIPTA BANDYOPADHYAY, JONATHAN BENTZ,
     BRETT BODE, GALINA CHABAN, WEI CHEN, CHEOL HO CHOI, PAUL DAY,
     ALBERT DEFUSCO, TIM DUDLEY, DMITRI FEDOROV, GRAHAM FLETCHER,
     MARK FREITAG, KURT GLAESEMANN, DAN KEMP, GRANT MERRILL,
     NORIYUKI MINEZAWA, JONATHAN MULLIN, TAKESHI NAGATA,
     SEAN NEDD, HEATHER NETZLOFF, BOSILJKA NJEGIC, RYAN OLSON, MIKE PAK,
     JIM SHOEMAKER, LYUDMILA SLIPCHENKO, SAROM SOK, JIE SONG,
     TETSUYA TAKETSUGU, SIMON WEBB, SOOHAENG YOO, FEDERICO ZAHARIEV

  ADDITIONAL CODE HAS BEEN PROVIDED BY COLLABORATORS IN OTHER GROUPS:
     IOWA STATE UNIVERSITY:
          JOE IVANIC, LAIMUTIS BYTAUTAS, KLAUS RUEDENBERG
     UNIVERSITY OF TOKYO: KIMIHIKO HIRAO, TAKAHITO NAKAJIMA,
          TAKAO TSUNEDA, MUNEAKI KAMIYA, SUSUMU YANAGISAWA,
          KIYOSHI YAGI, MAHITO CHIBA, SEIKEN TOKURA, NAOAKI KAWAKAMI
     UNIVERSITY OF AARHUS: FRANK JENSEN
     UNIVERSITY OF IOWA: VISVALDAS KAIRYS, HUI LI
     NATIONAL INST. OF STANDARDS AND TECHNOLOGY: WALT STEVENS, DAVID GARMER
     UNIVERSITY OF PISA: BENEDETTA MENNUCCI, JACOPO TOMASI
     UNIVERSITY OF MEMPHIS: HENRY KURTZ, PRAKASHAN KORAMBATH
     UNIVERSITY OF ALBERTA: TOBY ZENG, MARIUSZ KLOBUKOWSKI
     UNIVERSITY OF NEW ENGLAND: MARK SPACKMAN
     MIE UNIVERSITY: HIROAKI UMEDA
     MICHIGAN STATE UNIVERSITY:
          KAROL KOWALSKI, MARTA WLOCH, JEFFREY GOUR, JESSE LUTZ, PIOTR PIECUCH
     UNIVERSITY OF SILESIA: MONIKA MUSIAL, STANISLAW KUCHARSKI
     FACULTES UNIVERSITAIRES NOTRE-DAME DE LA PAIX:
          OLIVIER QUINET, BENOIT CHAMPAGNE
     UNIVERSITY OF CALIFORNIA - SANTA BARBARA: BERNARD KIRTMAN
     INSTITUTE FOR MOLECULAR SCIENCE:
          KAZUYA ISHIMURA, MICHIO KATOUDA, AND SHIGERU NAGASE
     UNIVERSITY OF NOTRE DAME: DAN CHIPMAN
     KYUSHU UNIVERSITY:
          HARUYUKI NAKANO,
          FENG LONG GU, JACEK KORCHOWIEC, MARCIN MAKOWSKI, AND YURIKO AOKI,
          HIROTOSHI MORI AND EISAKU MIYOSHI
     PENNSYLVANIA STATE UNIVERSITY:
          TZVETELIN IORDANOV, CHET SWALINA, JONATHAN SKONE,
          SHARON HAMMES-SCHIFFER
     WASEDA UNIVERSITY:
          MASATO KOBAYASHI, TOMOKO AKAMA, TSUGUKI TOUMA,
          TAKESHI YOSHIKAWA, YASUHIRO IKABATA, HIROMI NAKAI
     UNIVERSITY OF NEBRASKA:
          PEIFENG SU, DEJUN SI, NANDUN THELLAMUREGE, YALI WANG, HUI LI
     UNIVERSITY OF ZURICH:
          ROBERTO PEVERATI, KIM BALDRIDGE
     N. COPERNICUS UNIVERSITY AND JACKSON STATE UNIVERSITY:
          MARIA BARYSZ

 EXECUTION OF GAMESS BEGUN Thu Feb 26 00:22:43 2015

            ECHO OF THE FIRST FEW INPUT CARDS -
 INPUT CARD> $BASIS GBASIS=PC1 $END                                                         
 INPUT CARD> $CONTRL COORD=ZMT ISPHER=1 RUNTYP=ENERGY DFTTYP=PBE $END                       
 INPUT CARD>                                                                                
 INPUT CARD> $DATA                                                                          
 INPUT CARD>Title                                                                           
 INPUT CARD>Cnv 2                                                                           
 INPUT CARD>                                                                                
 INPUT CARD>S                                                                               
 INPUT CARD>O 1 2.00                                                                        
 INPUT CARD>O 1 2.00 2 120.0                                                                
 INPUT CARD> $END                                                                           
    1000000 WORDS OF MEMORY AVAILABLE

     BASIS OPTIONS
     -------------
     GBASIS=PC1          IGAUSS=       0      POLAR=NONE    
     NDFUNC=       0     NFFUNC=       0     DIFFSP=       F
     NPFUNC=       0      DIFFS=       F     BASNAM=        


     RUN TITLE
     ---------
 Title                                                                           

 THE POINT GROUP OF THE MOLECULE IS CNV     
 THE ORDER OF THE PRINCIPAL AXIS IS     2

 YOUR FULLY SUBSTITUTED Z-MATRIX IS
 S   
 O      1   2.0000000
 O      1   2.0000000  2  120.0000

 THE MOMENTS OF INERTIA ARE (AMU-ANGSTROM**2)
 IXX=    15.990   IYY=    95.969   IZZ=   111.960

 ATOM      ATOMIC                      COORDINATES (BOHR)
           CHARGE         X                   Y                   Z
 S          16.0     0.0000000000        0.0000000000       -0.9451252018
 O           8.0    -3.2731014231        0.0000000000        0.9446007859
 O           8.0     3.2731014231        0.0000000000        0.9446007859

          INTERNUCLEAR DISTANCES (ANGS.)
          ------------------------------

                1 S          2 O          3 O     

   1 S       0.0000000    2.0000000 *  2.0000000 *
   2 O       2.0000000 *  0.0000000    3.4641016  
   3 O       2.0000000 *  3.4641016    0.0000000  

  * ... LESS THAN  3.000


     ATOMIC BASIS SET
     ----------------
 THE CONTRACTED PRIMITIVE FUNCTIONS HAVE BEEN UNNORMALIZED
 THE CONTRACTED BASIS FUNCTIONS ARE NOW NORMALIZED TO UNITY

  SHELL TYPE  PRIMITIVE        EXPONENT          CONTRACTION COEFFICIENT(S)

 S         

      1   S       1         55510.0000000    0.000587229760
      1   S       2          8326.7000000    0.004532413947
      1   S       3          1895.6000000    0.023265261648
      1   S       4           536.7700000    0.089696133027
      1   S       5           174.6700000    0.254098332277
      1   S       6            62.5780000    0.438665087637
      1   S       7            23.5730000    0.314547135094
      1   S       8             5.8908000    0.032727897102

      2   S       9          8326.7000000   -0.000019755715
      2   S      10          1895.6000000   -0.000043822381
      2   S      11           536.7700000   -0.001730264906
      2   S      12           174.6700000   -0.009381263460
      2   S      13            62.5780000   -0.064050766303
      2   S      14            23.5730000   -0.082478179196
      2   S      15             5.8908000    0.478342956889
      2   S      16             2.1852000    0.626896670208

      3   S      17          1895.6000000    0.000016227260
      3   S      18           536.7700000    0.000191135619
      3   S      19           174.6700000    0.001952069674
      3   S      20            62.5780000    0.010578701087
      3   S      21            23.5730000    0.022164934551
      3   S      22             5.8908000   -0.184968323118
      3   S      23             2.1852000   -0.480920750976
      3   S      24             0.4528200    1.243822243872

      4   S      25             0.1620200    1.000000000000

      5   P      26           395.4500000    0.004642761329
      5   P      27            92.8340000    0.036023396489
      5   P      28            29.2660000    0.149058869978
      5   P      29            10.5950000    0.360033266263
      5   P      30             4.0272000    0.455756476221
      5   P      31             1.5484000    0.206167664178

      6   P      32            92.8340000    0.000169901442
      6   P      33            29.2660000   -0.002541839934
      6   P      34            10.5950000   -0.007867614595
      6   P      35             4.0272000   -0.037231009184
      6   P      36             1.5484000    0.161417246830
      6   P      37             0.4613400    0.902230419976

      7   P      38             0.1313100    1.000000000000

      8   D      39             0.5500000    1.000000000000

 O         

     15   S      40          2306.7000000    0.005424388755
     15   S      41           347.1500000    0.040474749465
     15   S      42            78.8900000    0.180219634554
     15   S      43            21.8760000    0.462370311787
     15   S      44             6.6646000    0.454888396263

     16   S      45           347.1500000   -0.000655003786
     16   S      46            78.8900000   -0.005362052952
     16   S      47            21.8760000   -0.074902158894
     16   S      48             6.6646000   -0.181442579655
     16   S      49             1.0669000    1.102006874042

     17   S      50             0.3070000    1.000000000000

     18   P      51            17.0220000    0.068979967443
     18   P      52             3.6838000    0.351985516325
     18   P      53             0.9923400    0.724036547822

     19   P      54             0.2448700    1.000000000000

     20   D      55             1.0000000    1.000000000000

 TOTAL NUMBER OF BASIS SET SHELLS             =   20
 NUMBER OF CARTESIAN GAUSSIAN BASIS FUNCTIONS =   49
 NOTE: THIS RUN WILL RESTRICT THE MO VARIATION SPACE TO SPHERICAL HARMONICS.
 THE NUMBER OF ORBITALS KEPT IN THE VARIATIONAL SPACE WILL BE PRINTED LATER.
 NUMBER OF ELECTRONS                          =   32
 CHARGE OF MOLECULE                           =    0
 SPIN MULTIPLICITY                            =    1
 NUMBER OF OCCUPIED ORBITALS (ALPHA)          =   16
 NUMBER OF OCCUPIED ORBITALS (BETA )          =   16
 TOTAL NUMBER OF ATOMS                        =    3
 THE NUCLEAR REPULSION ENERGY IS       77.5113479762

     LEBEDEV GRID-BASED DFT OPTIONS
     ------------------------------
     DFTTYP=PBE     
     NRAD  =      96     NLEB  =     302
     NRAD0 =      24     NLEB0 =     110
     SWOFF =    5.00E-03 (PURE SCF -> DFT)
     SWITCH=    3.00E-04 (COARSE -> TIGHT GRID)
     THRESH=    0.00E+00 GTHRE=    1.00E+00

 GRIMME'S EMPIRICAL DISPERSION CORRECTION= F

     $CONTRL OPTIONS
     ---------------
 SCFTYP=RHF          RUNTYP=ENERGY       EXETYP=RUN     
 MPLEVL=       0     CITYP =NONE         CCTYP =NONE         VBTYP =NONE    
 DFTTYP=PBE          TDDFT =NONE    
 MULT  =       1     ICHARG=       0     NZVAR =       0     COORD =ZMT     
 PP    =NONE         RELWFN=NONE         LOCAL =NONE         NUMGRD=       F
 ISPHER=       1     NOSYM =       0     MAXIT =      30     UNITS =ANGS    
 PLTORB=       F     MOLPLT=       F     AIMPAC=       F     FRIEND=        
 NPRINT=       7     IREST =       0     GEOM  =INPUT   
 NORMF =       0     NORMP =       0     ITOL  =      20     ICUT  =       9
 INTTYP=BEST         GRDTYP=BEST         QMTTOL= 1.0E-06

     $SYSTEM OPTIONS
     ---------------
  REPLICATED MEMORY=     1000000 WORDS (ON EVERY NODE).
 DISTRIBUTED MEMDDI=           0 MILLION WORDS IN AGGREGATE,
 MEMDDI DISTRIBUTED OVER   1 PROCESSORS IS           0 WORDS/PROCESSOR.
 TOTAL MEMORY REQUESTED ON EACH PROCESSOR=     1000000 WORDS.
 TIMLIM=      525600.00 MINUTES, OR     365.0 DAYS.
 PARALL= F  BALTYP=  DLB     KDIAG=    0  COREFL= F
 MXSEQ2=     300 MXSEQ3=     150

          ----------------
          PROPERTIES INPUT
          ----------------

     MOMENTS            FIELD           POTENTIAL          DENSITY
 IEMOM =       1   IEFLD =       0   IEPOT =       0   IEDEN =       0
 WHERE =COMASS     WHERE =NUCLEI     WHERE =NUCLEI     WHERE =NUCLEI  
 OUTPUT=BOTH       OUTPUT=BOTH       OUTPUT=BOTH       OUTPUT=BOTH    
 IEMINT=       0   IEFINT=       0                     IEDINT=       0
                                                       MORB  =       0
          EXTRAPOLATION IN EFFECT
          DIIS IN EFFECT
 ORBITAL PRINTING OPTION: NPREO=     1    49     2     1

     -------------------------------
     INTEGRAL TRANSFORMATION OPTIONS
     -------------------------------
     NWORD  =            0
     CUTOFF = 1.0E-09     MPTRAN =       0
     DIRTRF =       F     AOINTS =DUP     

          ----------------------
          INTEGRAL INPUT OPTIONS
          ----------------------
 NOPK  =       1 NORDER=       0 SCHWRZ=       F

   --- ENCODED Z MATRIX ---
 COORD  TYPE   I   J   K   L   M   N
    1      1    3   1
    2      1    2   1
    3      2    2   1   3

 THE DETERMINANT OF THE G MATRIX IS 10**(    -4)

 THE DETERMINANT OF THE G MATRIX IS 10**(    -4)
 * * * WARNING * * *
 YOUR B MATRIX HAS A SMALL DETERMINANT.
 THIS SUGGESTS YOU MAY HAVE BADLY CHOSEN COORDINATES.

     ------------------------------------------
     THE POINT GROUP IS CNV, NAXIS= 2, ORDER= 4
     ------------------------------------------

 -- VARIATIONAL SPACE WILL BE RESTRICTED TO PURE SPHERICAL HARMONICS ONLY --
 AFTER EXCLUDING CONTAMINANT COMBINATIONS FROM THE CARTESIAN GAUSSIAN BASIS
 SET, THE NUMBER OF SPHERICAL HARMONICS KEPT IN THE VARIATION SPACE IS   46

     DIMENSIONS OF THE SYMMETRY SUBSPACES ARE
 A1  =   19     A2  =    5     B1  =   14     B2  =    8

 ..... DONE SETTING UP THE RUN .....
 STEP CPU TIME =     0.02 TOTAL CPU TIME =        0.0 (    0.0 MIN)
 TOTAL WALL CLOCK TIME=        0.0 SECONDS, CPU UTILIZATION IS 100.00%

          ********************
          1 ELECTRON INTEGRALS
          ********************
 ...... END OF ONE-ELECTRON INTEGRALS ......
 STEP CPU TIME =     0.00 TOTAL CPU TIME =        0.0 (    0.0 MIN)
 TOTAL WALL CLOCK TIME=        0.0 SECONDS, CPU UTILIZATION IS 100.00%

          -------------
          GUESS OPTIONS
          -------------
          GUESS =HUCKEL            NORB  =       0          NORDER=       0
          MIX   =       F          PRTMO =       F          PUNMO =       F
          TOLZ  = 1.0E-08          TOLE  = 1.0E-05
          SYMDEN=       F          PURIFY=       F

 INITIAL GUESS ORBITALS GENERATED BY HUCKEL   ROUTINE.
 HUCKEL GUESS REQUIRES     21583 WORDS.

 STATISTICS FOR GENERATION OF SYMMETRY ORBITAL -Q- MATRIX
 NUMBER OF CARTESIAN ATOMIC ORBITALS=         49
 NUMBER OF SPHERICAL CONTAMINANTS DROPPED=     3
 NUMBER OF LINEARLY DEPENDENT MOS DROPPED=     0
 TOTAL NUMBER OF MOS IN VARIATION SPACE=      46

 SYMMETRIES FOR INITIAL GUESS ORBITALS FOLLOW.   BOTH SET(S).
    16 ORBITALS ARE OCCUPIED (    7 CORE ORBITALS).
     8=?A1      9=?B1     10=A1      11=?B1     12=B2      13=A1      14=A2  
    15=B1      16=?A1     17=B2      18=A1      19=B1      20=A1      21=A1  
    22=A1      23=A1      24=A1      25=A1      26=A1  
 ...... END OF INITIAL ORBITAL SELECTION ......
 STEP CPU TIME =     0.01 TOTAL CPU TIME =        0.0 (    0.0 MIN)
 TOTAL WALL CLOCK TIME=        0.0 SECONDS, CPU UTILIZATION IS 100.00%

                    ----------------------
                    AO INTEGRAL TECHNOLOGY
                    ----------------------
     S,P,L SHELL ROTATED AXIS INTEGRALS, REPROGRAMMED BY
        KAZUYA ISHIMURA (IMS) AND JOSE SIERRA (SYNSTAR).
     S,P,D,L SHELL ROTATED AXIS INTEGRALS PROGRAMMED BY
        KAZUYA ISHIMURA (INSTITUTE FOR MOLECULAR SCIENCE).
     S,P,D,F,G SHELL TO TOTAL QUARTET ANGULAR MOMENTUM SUM 5,
        ERIC PROGRAM BY GRAHAM FLETCHER (ELORET AND NASA ADVANCED
        SUPERCOMPUTING DIVISION, AMES RESEARCH CENTER).
     S,P,D,F,G,L SHELL GENERAL RYS QUADRATURE PROGRAMMED BY
        MICHEL DUPUIS (PACIFIC NORTHWEST NATIONAL LABORATORY).

          --------------------
          2 ELECTRON INTEGRALS
          --------------------

 THE -PK- OPTION IS OFF, THE INTEGRALS ARE NOT IN SUPERMATRIX FORM.
 STORING   15000 INTEGRALS/RECORD ON DISK, USING 12 BYTES/INTEGRAL.
 TWO ELECTRON INTEGRAL EVALUATION REQUIRES   90606 WORDS OF MEMORY.
 II,JST,KST,LST =  1  1  1  1 NREC =         1 INTLOC =    1
 II,JST,KST,LST =  2  1  1  1 NREC =         1 INTLOC =    2
 II,JST,KST,LST =  3  1  1  1 NREC =         1 INTLOC =    7
 II,JST,KST,LST =  4  1  1  1 NREC =         1 INTLOC =   22
 II,JST,KST,LST =  5  1  1  1 NREC =         1 INTLOC =   56
 II,JST,KST,LST =  6  1  1  1 NREC =         1 INTLOC =  125
 II,JST,KST,LST =  7  1  1  1 NREC =         1 INTLOC =  329
 II,JST,KST,LST =  8  1  1  1 NREC =         1 INTLOC =  776
 II,JST,KST,LST =  9  1  1  1 NREC =         1 INTLOC = 2864
 II,JST,KST,LST = 10  1  1  1 NREC =         1 INTLOC = 2864
 II,JST,KST,LST = 11  1  1  1 NREC =         1 INTLOC = 2864
 II,JST,KST,LST = 12  1  1  1 NREC =         1 INTLOC = 2864
 II,JST,KST,LST = 13  1  1  1 NREC =         1 INTLOC = 2864
 II,JST,KST,LST = 14  1  1  1 NREC =         1 INTLOC = 2864
 II,JST,KST,LST = 15  1  1  1 NREC =         1 INTLOC = 2864
 II,JST,KST,LST = 16  1  1  1 NREC =         1 INTLOC = 4679
 II,JST,KST,LST = 17  1  1  1 NREC =         1 INTLOC = 7616
 II,JST,KST,LST = 18  1  1  1 NREC =         1 INTLOC =11881
 II,JST,KST,LST = 19  1  1  1 NREC =         2 INTLOC =12049
 II,JST,KST,LST = 20  1  1  1 NREC =         4 INTLOC =11499
 TOTAL NUMBER OF NONZERO TWO-ELECTRON INTEGRALS =              147841
         10 INTEGRAL RECORDS WERE STORED ON DISK FILE  8.
  ...... END OF TWO-ELECTRON INTEGRALS .....
 STEP CPU TIME =     0.15 TOTAL CPU TIME =        0.2 (    0.0 MIN)
 TOTAL WALL CLOCK TIME=        0.2 SECONDS, CPU UTILIZATION IS 100.00%

          --------------------------
               R-PBE SCF CALCULATION
          --------------------------

     NUCLEAR ENERGY =        77.5113479762
     MAXIT =   30     NPUNCH=    2
     EXTRAP=T  DAMP=F  SHIFT=F  RSTRCT=F  DIIS=T  DEM=F  SOSCF=F
         DENSITY MATRIX CONVERGENCE THRESHOLD=  1.00E-05
     COARSE -> FINE DFT GRID SWITCH THRESHOLD=  3.00E-04 (SWITCH IN $DFT)
                   HF -> DFT SWITCH THRESHOLD=  5.00E-03 (SWOFF IN $DFT)
     MEMORY REQUIRED FOR RHF ITERS=    183108 WORDS.

 DFT CODE IS SWITCHING FROM THE FINE GRID NRAD= 96,  NLEB=  302
                      TO THE COARSE GRID NRAD0= 24, NLEB0=  110

     EXCHANGE FUNCTIONAL   =PBE       
     CORRELATION FUNCTIONAL=PBE       
     DFT THRESHOLD         =.460E-07
     GRID CHANGE THRESHOLD =.300E-03
 FOR AN EULER-MACLAURIN QUADRATURE USING  96 RADIAL POINTS:
 SMALLEST GAUSSIAN PRIMITIVE EXPONENT=        0.1313100000 OF TYPE -P-
 ON ATOM NUMBER   1 HAS RADIAL NORMALIZATION=  1.000000
  LARGEST GAUSSIAN PRIMITIVE EXPONENT=    55510.0000000000 OF TYPE -S-
 ON ATOM NUMBER   1 HAS RADIAL NORMALIZATION=  0.999999
 DFT IS SWITCHED OFF, PERFORMING PURE SCF UNTIL SWOFF THRESHOLD IS REACHED.

 ITER EX DEM     TOTAL ENERGY        E CHANGE  DENSITY CHANGE    DIIS ERROR
   1  0  0     -545.5178072169  -545.5178072169   0.871247146   0.924441776
   2  1  0     -545.0536517007     0.4641555162   1.052121672   0.846761575
   3  2  0     -543.8563318221     1.1973198786   1.620349138   0.859519263
   4  3  0     -537.8995327636     5.9567990585   1.673449642   2.266422959
   5  0  0     -538.9284378120    -1.0289050484   0.807143944   1.234947300
          * * *   INITIATING DIIS PROCEDURE   * * *
   6  1  0     -545.6192117560    -6.6907739440   1.201351390   0.496877076
   7  2  0     -543.5914470583     2.0277646977   0.773799544   1.225481609
   8  3  0     -546.6754229626    -3.0839759043   0.089224409   0.179159179
   9  4  0     -546.7559113781    -0.0804884155   0.076272578   0.072219708
  10  5  0     -546.7815014885    -0.0255901104   0.040398843   0.020748703
  11  6  0     -546.7872617039    -0.0057602154   0.044360921   0.019533403
  12  7  0     -546.7924132532    -0.0051515494   0.099340698   0.014896193
  13  8  0     -546.7998688244    -0.0074555712   0.021593029   0.005864691
  14  9  0     -546.8004732858    -0.0006044614   0.009176627   0.001446264
  15 10  0     -546.8005245371    -0.0000512513   0.002605368   0.000886224
 CONVERGED TO SWOFF, SO DFT CALCULATION IS NOW SWITCHED ON.
          * * *   INITIATING DIIS PROCEDURE   * * *
  16 11  0     -547.9334991556    -1.1329746184   0.736206503   0.111603398
  17 12  0     -547.9317190783     0.0017800773   0.474543075   0.221627089
  18 13  0     -547.8779729980     0.0537460802   0.161564972   0.327032710
  19 14  0     -548.0909602286    -0.2129872305   0.037578717   0.032229509
  20 15  0     -548.0940655039    -0.0031052753   0.004529818   0.007744758
  21 16  0     -548.0942046741    -0.0001391702   0.000728875   0.001894897
  22 17  0     -548.0942130471    -0.0000083730   0.000855175   0.000913837
  23 18  0     -548.0942147791    -0.0000017320   0.000039059   0.000039424
 DFT CODE IS SWITCHING BACK TO THE FINE GRID
          * * *   INITIATING DIIS PROCEDURE   * * *
  24 19  0     -548.0722641451     0.0219506340   0.014466368   0.013199739
  25 20  0     -548.0725399457    -0.0002758005   0.021637498   0.005026424
  26 21  0     -548.0712771373     0.0012628084   0.021769858   0.026301550
  27 22  0     -548.0726201319    -0.0013429946   0.001527286   0.001588177
  28 23  0     -548.0726278495    -0.0000077176   0.000160407   0.000152414
  29 24  0     -548.0726279535    -0.0000001040   0.000020819   0.000021089
  30 25  0     -548.0726279541    -0.0000000006   0.000017963   0.000017642

 SCF IS UNCONVERGED, TOO MANY ITERATIONS
     TIME TO FORM FOCK OPERATORS=       3.5 SECONDS (       0.1 SEC/ITER)
     TIME TO SOLVE SCF EQUATIONS=       0.1 SECONDS (       0.0 SEC/ITER)

 FINAL R-PBE ENERGY IS        0.0000000000 AFTER  30 ITERATIONS
 DFT EXCHANGE + CORRELATION ENERGY =       -42.0666682081
 TOTAL ELECTRON NUMBER             =        32.0000009808

          ------------
          EIGENVECTORS
          ------------

                      1          2          3          4          5
                  -88.2230   -18.8446   -18.8446    -7.8438    -5.8652
                     A1         A1         B1         A1         B1  
    1  S  1  S    1.002978  -0.000077   0.000000  -0.274131   0.000000
    2  S  1  S   -0.010258  -0.001004   0.000000   1.039719   0.000000
    3  S  1  S    0.001803  -0.002108   0.000000   0.040607   0.000000
    4  S  1  S   -0.001048   0.005172   0.000000  -0.013354   0.000000
    5  S  1  X    0.000000   0.000000   0.000072   0.000000   0.996911
    6  S  1  Y    0.000000   0.000000   0.000000   0.000000   0.000000
    7  S  1  Z    0.000047  -0.000046   0.000000   0.006518   0.000000
    8  S  1  X    0.000000   0.000000  -0.000033   0.000000   0.008858
    9  S  1  Y    0.000000   0.000000   0.000000   0.000000   0.000000
   10  S  1  Z    0.000004   0.000034   0.000000   0.000332   0.000000
   11  S  1  X    0.000000   0.000000  -0.003796   0.000000  -0.000046
   12  S  1  Y    0.000000   0.000000   0.000000   0.000000   0.000000
   13  S  1  Z   -0.000092   0.002260   0.000000  -0.000870   0.000000
   14  S  1 XX   -0.000031   0.001026   0.000000  -0.000088   0.000000
   15  S  1 YY    0.000028  -0.000880   0.000000   0.000115   0.000000
   16  S  1 ZZ    0.000003  -0.000146   0.000000  -0.000027   0.000000
   17  S  1 XY    0.000000   0.000000   0.000000   0.000000   0.000000
   18  S  1 XZ    0.000000   0.000000  -0.001265   0.000000   0.000311
   19  S  1 YZ    0.000000   0.000000   0.000000   0.000000   0.000000
   20  O  2  S   -0.000004   0.703210   0.703212  -0.000025  -0.000001
   21  O  2  S   -0.000043   0.024535   0.024551  -0.000232  -0.000021
   22  O  2  S    0.000148  -0.009117  -0.009322   0.001247   0.000115
   23  O  2  X    0.000006   0.000672   0.000539   0.000058   0.000043
   24  O  2  Y    0.000000   0.000000   0.000000   0.000000   0.000000
   25  O  2  Z   -0.000009  -0.000281  -0.000425  -0.000081  -0.000025
   26  O  2  X    0.000057  -0.001913  -0.001406   0.000342   0.000040
   27  O  2  Y    0.000000   0.000000   0.000000   0.000000   0.000000
   28  O  2  Z   -0.000012   0.000647   0.001261  -0.000002  -0.000038
   29  O  2 XX   -0.000005  -0.000203  -0.000076  -0.000173   0.000009
   30  O  2 YY    0.000006   0.000145   0.000119   0.000155  -0.000013
   31  O  2 ZZ   -0.000001   0.000059  -0.000043   0.000019   0.000004
   32  O  2 XY    0.000000   0.000000   0.000000   0.000000   0.000000
   33  O  2 XZ    0.000011   0.000147   0.000179   0.000245  -0.000026
   34  O  2 YZ    0.000000   0.000000   0.000000   0.000000   0.000000
   35  O  3  S   -0.000004   0.703210  -0.703212  -0.000025   0.000001
   36  O  3  S   -0.000043   0.024535  -0.024551  -0.000232   0.000021
   37  O  3  S    0.000148  -0.009117   0.009322   0.001247  -0.000115
   38  O  3  X   -0.000006  -0.000672   0.000539  -0.000058   0.000043
   39  O  3  Y    0.000000   0.000000   0.000000   0.000000   0.000000
   40  O  3  Z   -0.000009  -0.000281   0.000425  -0.000081   0.000025
   41  O  3  X   -0.000057   0.001913  -0.001406  -0.000342   0.000040
   42  O  3  Y    0.000000   0.000000   0.000000   0.000000   0.000000
   43  O  3  Z   -0.000012   0.000647  -0.001261  -0.000002   0.000038
   44  O  3 XX   -0.000005  -0.000203   0.000076  -0.000173  -0.000009
   45  O  3 YY    0.000006   0.000145  -0.000119   0.000155   0.000013
   46  O  3 ZZ   -0.000001   0.000059   0.000043   0.000019  -0.000004
   47  O  3 XY    0.000000   0.000000   0.000000   0.000000   0.000000
   48  O  3 XZ   -0.000011  -0.000147   0.000179  -0.000245  -0.000026
   49  O  3 YZ    0.000000   0.000000   0.000000   0.000000   0.000000

                      6          7          8          9         10
                   -5.8618    -5.8615    -0.8833    -0.8616    -0.6829
                     A1         B2         A1         B1         A1  
    1  S  1  S    0.001744   0.000000   0.032885   0.000000   0.080341
    2  S  1  S   -0.006846   0.000000  -0.099251   0.000000  -0.232577
    3  S  1  S   -0.000444   0.000000   0.190977   0.000000   0.494227
    4  S  1  S    0.000158   0.000000   0.176161   0.000000   0.478274
    5  S  1  X    0.000000   0.000000   0.000000   0.045393   0.000000
    6  S  1  Y    0.000000   0.996949   0.000000   0.000000   0.000000
    7  S  1  Z    0.996931   0.000000  -0.024176   0.000000   0.008710
    8  S  1  X    0.000000   0.000000   0.000000  -0.093899   0.000000
    9  S  1  Y    0.000000   0.008765   0.000000   0.000000   0.000000
   10  S  1  Z    0.008743   0.000000   0.050387   0.000000  -0.016372
   11  S  1  X    0.000000   0.000000   0.000000  -0.031974   0.000000
   12  S  1  Y    0.000000  -0.000163   0.000000   0.000000   0.000000
   13  S  1  Z   -0.000134   0.000000   0.015628   0.000000  -0.020308
   14  S  1 XX   -0.000151   0.000000   0.018411   0.000000  -0.003954
   15  S  1 YY   -0.000151   0.000000  -0.014691   0.000000   0.003841
   16  S  1 ZZ    0.000302   0.000000  -0.003720   0.000000   0.000112
   17  S  1 XY    0.000000   0.000000   0.000000   0.000000   0.000000
   18  S  1 XZ    0.000000   0.000000   0.000000  -0.023522   0.000000
   19  S  1 YZ    0.000000   0.000258   0.000000   0.000000   0.000000
   20  O  2  S   -0.000002   0.000000  -0.143648  -0.158311   0.076212
   21  O  2  S   -0.000021   0.000000   0.291350   0.322682  -0.161108
   22  O  2  S   -0.000008   0.000000   0.367417   0.411653  -0.226515
   23  O  2  X   -0.000028   0.000000   0.043219   0.034503   0.058751
   24  O  2  Y    0.000000   0.000006   0.000000   0.000000   0.000000
   25  O  2  Z    0.000028   0.000000  -0.024856  -0.021946  -0.033379
   26  O  2  X   -0.000004   0.000000   0.023726   0.021723   0.028194
   27  O  2  Y    0.000000  -0.000038   0.000000   0.000000   0.000000
   28  O  2  Z   -0.000057   0.000000  -0.015316  -0.013633  -0.013805
   29  O  2 XX   -0.000018   0.000000   0.005385   0.004652   0.002809
   30  O  2 YY   -0.000002   0.000000  -0.002220  -0.001458  -0.003389
   31  O  2 ZZ    0.000020   0.000000  -0.003165  -0.003195   0.000580
   32  O  2 XY    0.000000  -0.000025   0.000000   0.000000   0.000000
   33  O  2 XZ   -0.000018   0.000000  -0.006628  -0.006041  -0.003235
   34  O  2 YZ    0.000000   0.000014   0.000000   0.000000   0.000000
   35  O  3  S   -0.000002   0.000000  -0.143648   0.158311   0.076212
   36  O  3  S   -0.000021   0.000000   0.291350  -0.322682  -0.161108
   37  O  3  S   -0.000008   0.000000   0.367417  -0.411653  -0.226515
   38  O  3  X    0.000028   0.000000  -0.043219   0.034503  -0.058751
   39  O  3  Y    0.000000   0.000006   0.000000   0.000000   0.000000
   40  O  3  Z    0.000028   0.000000  -0.024856   0.021946  -0.033379
   41  O  3  X    0.000004   0.000000  -0.023726   0.021723  -0.028194
   42  O  3  Y    0.000000  -0.000038   0.000000   0.000000   0.000000
   43  O  3  Z   -0.000057   0.000000  -0.015316   0.013633  -0.013805
   44  O  3 XX   -0.000018   0.000000   0.005385  -0.004652   0.002809
   45  O  3 YY   -0.000002   0.000000  -0.002220   0.001458  -0.003389
   46  O  3 ZZ    0.000020   0.000000  -0.003165   0.003195   0.000580
   47  O  3 XY    0.000000   0.000025   0.000000   0.000000   0.000000
   48  O  3 XZ    0.000018   0.000000   0.006628  -0.006041   0.003235
   49  O  3 YZ    0.000000   0.000014   0.000000   0.000000   0.000000

                     11         12         13         14         15
                   -0.4102    -0.3769    -0.3596    -0.3005    -0.2861
                     B1         A1         B2         A2         A1  
    1  S  1  S    0.000000  -0.010916   0.000000   0.000000   0.012228
    2  S  1  S    0.000000   0.040983   0.000000   0.000000  -0.042408
    3  S  1  S    0.000000  -0.057591   0.000000   0.000000   0.070477
    4  S  1  S    0.000000  -0.153599   0.000000   0.000000   0.164560
    5  S  1  X   -0.190553   0.000000   0.000000   0.000000   0.000000
    6  S  1  Y    0.000000   0.000000  -0.219718   0.000000   0.000000
    7  S  1  Z    0.000000  -0.214123   0.000000   0.000000   0.016258
    8  S  1  X    0.449133   0.000000   0.000000   0.000000   0.000000
    9  S  1  Y    0.000000   0.000000   0.519960   0.000000   0.000000
   10  S  1  Z    0.000000   0.505611   0.000000   0.000000  -0.043683
   11  S  1  X    0.207213   0.000000   0.000000   0.000000   0.000000
   12  S  1  Y    0.000000   0.000000   0.366274   0.000000   0.000000
   13  S  1  Z    0.000000   0.310343   0.000000   0.000000   0.031320
   14  S  1 XX    0.000000   0.009819   0.000000   0.000000  -0.068364
   15  S  1 YY    0.000000  -0.018342   0.000000   0.000000   0.025094
   16  S  1 ZZ    0.000000   0.008523   0.000000   0.000000   0.043270
   17  S  1 XY    0.000000   0.000000   0.000000  -0.048305   0.000000
   18  S  1 XZ    0.029422   0.000000   0.000000   0.000000   0.000000
   19  S  1 YZ    0.000000   0.000000   0.015825   0.000000   0.000000
   20  O  2  S   -0.038948   0.019838   0.000000   0.000000  -0.000984
   21  O  2  S    0.086456  -0.043422   0.000000   0.000000   0.007988
   22  O  2  S    0.142622  -0.078739   0.000000   0.000000  -0.018087
   23  O  2  X   -0.275423   0.292061   0.000000   0.000000  -0.004343
   24  O  2  Y    0.000000   0.000000   0.269254   0.481234   0.000000
   25  O  2  Z    0.196711   0.000410   0.000000   0.000000   0.476274
   26  O  2  X   -0.173555   0.188285   0.000000   0.000000  -0.010952
   27  O  2  Y    0.000000   0.000000   0.171860   0.334998   0.000000
   28  O  2  Z    0.125440  -0.001139   0.000000   0.000000   0.339204
   29  O  2 XX   -0.006118   0.010215   0.000000   0.000000   0.002694
   30  O  2 YY    0.007124  -0.004648   0.000000   0.000000   0.002789
   31  O  2 ZZ   -0.001006  -0.005568   0.000000   0.000000  -0.005483
   32  O  2 XY    0.000000   0.000000   0.008312   0.007161   0.000000
   33  O  2 XZ    0.011079  -0.003175   0.000000   0.000000   0.007413
   34  O  2 YZ    0.000000   0.000000  -0.004960  -0.004731   0.000000
   35  O  3  S    0.038948   0.019838   0.000000   0.000000  -0.000984
   36  O  3  S   -0.086456  -0.043422   0.000000   0.000000   0.007988
   37  O  3  S   -0.142622  -0.078739   0.000000   0.000000  -0.018087
   38  O  3  X   -0.275423  -0.292061   0.000000   0.000000   0.004343
   39  O  3  Y    0.000000   0.000000   0.269254  -0.481234   0.000000
   40  O  3  Z   -0.196711   0.000410   0.000000   0.000000   0.476274
   41  O  3  X   -0.173555  -0.188285   0.000000   0.000000   0.010952
   42  O  3  Y    0.000000   0.000000   0.171860  -0.334998   0.000000
   43  O  3  Z   -0.125440  -0.001139   0.000000   0.000000   0.339204
   44  O  3 XX    0.006118   0.010215   0.000000   0.000000   0.002694
   45  O  3 YY   -0.007124  -0.004648   0.000000   0.000000   0.002789
   46  O  3 ZZ    0.001006  -0.005568   0.000000   0.000000  -0.005483
   47  O  3 XY    0.000000   0.000000  -0.008312   0.007161   0.000000
   48  O  3 XZ    0.011079   0.003175   0.000000   0.000000  -0.007413
   49  O  3 YZ    0.000000   0.000000  -0.004960   0.004731   0.000000

                     16         17         18         19         20
                   -0.2861    -0.2582    -0.2001    -0.1502     0.3205
                     B1         B2         A1         B1         B1  
    1  S  1  S    0.000000   0.000000   0.021794   0.000000   0.000000
    2  S  1  S    0.000000   0.000000  -0.052261   0.000000   0.000000
    3  S  1  S    0.000000   0.000000   0.158505   0.000000   0.000000
    4  S  1  S    0.000000   0.000000   0.196121   0.000000   0.000000
    5  S  1  X   -0.022683   0.000000   0.000000  -0.228091   0.248088
    6  S  1  Y    0.000000  -0.184553   0.000000   0.000000   0.000000
    7  S  1  Z    0.000000   0.000000  -0.195815   0.000000   0.000000
    8  S  1  X    0.048290   0.000000   0.000000   0.573001  -0.984104
    9  S  1  Y    0.000000   0.455205   0.000000   0.000000   0.000000
   10  S  1  Z    0.000000   0.000000   0.488917   0.000000   0.000000
   11  S  1  X    0.106432   0.000000   0.000000   0.560765   1.391710
   12  S  1  Y    0.000000   0.310330   0.000000   0.000000   0.000000
   13  S  1  Z    0.000000   0.000000   0.409988   0.000000   0.000000
   14  S  1 XX    0.000000   0.000000  -0.046445   0.000000   0.000000
   15  S  1 YY    0.000000   0.000000   0.053109   0.000000   0.000000
   16  S  1 ZZ    0.000000   0.000000  -0.006664   0.000000   0.000000
   17  S  1 XY    0.000000   0.000000   0.000000   0.000000   0.000000
   18  S  1 XZ   -0.044506   0.000000   0.000000  -0.091170  -0.307341
   19  S  1 YZ    0.000000  -0.023727   0.000000   0.000000   0.000000
   20  O  2  S   -0.003036   0.000000   0.018821  -0.029606  -0.017099
   21  O  2  S    0.001047   0.000000  -0.038355   0.056127  -0.027533
   22  O  2  S    0.035688   0.000000  -0.113266   0.201730   0.389685
   23  O  2  X    0.321113   0.000000  -0.404304   0.235176  -0.210650
   24  O  2  Y    0.000000  -0.409823   0.000000   0.000000   0.000000
   25  O  2  Z    0.355046   0.000000  -0.005181  -0.287684  -0.009468
   26  O  2  X    0.232489   0.000000  -0.307387   0.210777   0.233137
   27  O  2  Y    0.000000  -0.288695   0.000000   0.000000   0.000000
   28  O  2  Z    0.236689   0.000000   0.002076  -0.228867  -0.147852
   29  O  2 XX    0.007405   0.000000   0.002200   0.001266   0.035805
   30  O  2 YY   -0.000708   0.000000  -0.000034   0.001401  -0.021917
   31  O  2 ZZ   -0.006696   0.000000  -0.002167  -0.002668  -0.013888
   32  O  2 XY    0.000000  -0.000915   0.000000   0.000000   0.000000
   33  O  2 XZ    0.001895   0.000000   0.001656   0.002871  -0.029217
   34  O  2 YZ    0.000000   0.000776   0.000000   0.000000   0.000000
   35  O  3  S    0.003036   0.000000   0.018821   0.029606   0.017099
   36  O  3  S   -0.001047   0.000000  -0.038355  -0.056127   0.027533
   37  O  3  S   -0.035688   0.000000  -0.113266  -0.201730  -0.389685
   38  O  3  X    0.321113   0.000000   0.404304   0.235176  -0.210650
   39  O  3  Y    0.000000  -0.409823   0.000000   0.000000   0.000000
   40  O  3  Z   -0.355046   0.000000  -0.005181   0.287684   0.009468
   41  O  3  X    0.232489   0.000000   0.307387   0.210777   0.233137
   42  O  3  Y    0.000000  -0.288695   0.000000   0.000000   0.000000
   43  O  3  Z   -0.236689   0.000000   0.002076   0.228867   0.147852
   44  O  3 XX   -0.007405   0.000000   0.002200  -0.001266  -0.035805
   45  O  3 YY    0.000708   0.000000  -0.000034  -0.001401   0.021917
   46  O  3 ZZ    0.006696   0.000000  -0.002167   0.002668   0.013888
   47  O  3 XY    0.000000   0.000915   0.000000   0.000000   0.000000
   48  O  3 XZ    0.001895   0.000000  -0.001656   0.002871  -0.029217
   49  O  3 YZ    0.000000   0.000776   0.000000   0.000000   0.000000

                     21         22         23         24         25
                    0.3573     0.3677     0.4094     0.4642     0.4808
                     A1         B2         A1         A2         A1  
    1  S  1  S    0.016182   0.000000  -0.098036   0.000000   0.020752
    2  S  1  S    0.009074   0.000000  -0.352998   0.000000   0.079873
    3  S  1  S    0.186577   0.000000  -1.515091   0.000000   0.327714
    4  S  1  S   -0.036358   0.000000   1.760445   0.000000  -0.397031
    5  S  1  X    0.000000   0.000000   0.000000   0.000000   0.000000
    6  S  1  Y    0.000000   0.299365   0.000000   0.000000   0.000000
    7  S  1  Z    0.283190   0.000000  -0.012991   0.000000   0.006148
    8  S  1  X    0.000000   0.000000   0.000000   0.000000   0.000000
    9  S  1  Y    0.000000  -1.150208   0.000000   0.000000   0.000000
   10  S  1  Z   -1.096838   0.000000   0.037170   0.000000  -0.009893
   11  S  1  X    0.000000   0.000000   0.000000   0.000000   0.000000
   12  S  1  Y    0.000000   1.194498   0.000000   0.000000   0.000000
   13  S  1  Z    1.250531   0.000000   0.084785   0.000000  -0.085988
   14  S  1 XX   -0.101741   0.000000  -0.497608   0.000000  -0.303823
   15  S  1 YY    0.151513   0.000000   0.327459   0.000000  -0.598207
   16  S  1 ZZ   -0.049772   0.000000   0.170148   0.000000   0.902030
   17  S  1 XY    0.000000   0.000000   0.000000   0.884043   0.000000
   18  S  1 XZ    0.000000   0.000000   0.000000   0.000000   0.000000
   19  S  1 YZ    0.000000  -0.070328   0.000000   0.000000   0.000000
   20  O  2  S    0.008648   0.000000   0.013493   0.000000  -0.007186
   21  O  2  S    0.012902   0.000000  -0.023816   0.000000   0.031407
   22  O  2  S   -0.196813   0.000000  -0.156790   0.000000   0.034192
   23  O  2  X    0.028041   0.000000   0.001379   0.000000  -0.105932
   24  O  2  Y    0.000000  -0.112376   0.000000   0.285283   0.000000
   25  O  2  Z   -0.148503   0.000000  -0.143568   0.000000  -0.189795
   26  O  2  X   -0.149846   0.000000  -0.121433   0.000000   0.134709
   27  O  2  Y    0.000000  -0.044934   0.000000  -0.216563   0.000000
   28  O  2  Z    0.039028   0.000000   0.153777   0.000000   0.123109
   29  O  2 XX   -0.010671   0.000000  -0.010866   0.000000   0.024820
   30  O  2 YY    0.012225   0.000000   0.020000   0.000000  -0.006579
   31  O  2 ZZ   -0.001554   0.000000  -0.009134   0.000000  -0.018241
   32  O  2 XY    0.000000   0.001452   0.000000  -0.031209   0.000000
   33  O  2 XZ    0.019110   0.000000   0.036148   0.000000   0.013807
   34  O  2 YZ    0.000000  -0.001279   0.000000   0.021856   0.000000
   35  O  3  S    0.008648   0.000000   0.013493   0.000000  -0.007186
   36  O  3  S    0.012902   0.000000  -0.023816   0.000000   0.031407
   37  O  3  S   -0.196813   0.000000  -0.156790   0.000000   0.034192
   38  O  3  X   -0.028041   0.000000  -0.001379   0.000000   0.105932
   39  O  3  Y    0.000000  -0.112376   0.000000  -0.285283   0.000000
   40  O  3  Z   -0.148503   0.000000  -0.143568   0.000000  -0.189795
   41  O  3  X    0.149846   0.000000   0.121433   0.000000  -0.134709
   42  O  3  Y    0.000000  -0.044934   0.000000   0.216563   0.000000
   43  O  3  Z    0.039028   0.000000   0.153777   0.000000   0.123109
   44  O  3 XX   -0.010671   0.000000  -0.010866   0.000000   0.024820
   45  O  3 YY    0.012225   0.000000   0.020000   0.000000  -0.006579
   46  O  3 ZZ   -0.001554   0.000000  -0.009134   0.000000  -0.018241
   47  O  3 XY    0.000000  -0.001452   0.000000  -0.031209   0.000000
   48  O  3 XZ   -0.019110   0.000000  -0.036148   0.000000  -0.013807
   49  O  3 YZ    0.000000  -0.001279   0.000000  -0.021856   0.000000

                     26         27         28         29         30
                    0.4885     0.5991     0.6004     0.7790     0.7852
                     B2         A1         B1         B1         A2  
    1  S  1  S    0.000000  -0.065478   0.000000   0.000000   0.000000
    2  S  1  S    0.000000  -0.260740   0.000000   0.000000   0.000000
    3  S  1  S    0.000000  -1.047514   0.000000   0.000000   0.000000
    4  S  1  S    0.000000   1.275840   0.000000   0.000000   0.000000
    5  S  1  X    0.000000   0.000000   0.109422   0.006849   0.000000
    6  S  1  Y    0.011805   0.000000   0.000000   0.000000   0.000000
    7  S  1  Z    0.000000   0.064353   0.000000   0.000000   0.000000
    8  S  1  X    0.000000   0.000000  -0.479354  -0.006131   0.000000
    9  S  1  Y   -0.037706   0.000000   0.000000   0.000000   0.000000
   10  S  1  Z    0.000000  -0.284405   0.000000   0.000000   0.000000
   11  S  1  X    0.000000   0.000000   0.831917  -0.273826   0.000000
   12  S  1  Y   -0.011039   0.000000   0.000000   0.000000   0.000000
   13  S  1  Z    0.000000   0.489285   0.000000   0.000000   0.000000
   14  S  1 XX    0.000000   0.683381   0.000000   0.000000   0.000000
   15  S  1 YY    0.000000  -0.670866   0.000000   0.000000   0.000000
   16  S  1 ZZ    0.000000  -0.012515   0.000000   0.000000   0.000000
   17  S  1 XY    0.000000   0.000000   0.000000   0.000000   0.481057
   18  S  1 XZ    0.000000   0.000000   0.879739   0.180713   0.000000
   19  S  1 YZ    0.951941   0.000000   0.000000   0.000000   0.000000
   20  O  2  S    0.000000   0.042882  -0.043159   0.008130   0.000000
   21  O  2  S    0.000000  -0.267016   0.261495  -0.070614   0.000000
   22  O  2  S    0.000000  -0.041557   0.079383  -0.009948   0.000000
   23  O  2  X    0.000000  -0.098948   0.134061  -0.178390   0.000000
   24  O  2  Y   -0.185190   0.000000   0.000000   0.000000  -0.575724
   25  O  2  Z    0.000000   0.108917   0.021457  -0.601566   0.000000
   26  O  2  X    0.000000  -0.179129   0.106092   0.190707   0.000000
   27  O  2  Y    0.149038   0.000000   0.000000   0.000000   0.710074
   28  O  2  Z    0.000000   0.015638  -0.191636   0.745635   0.000000
   29  O  2 XX    0.000000   0.002655  -0.030685  -0.014388   0.000000
   30  O  2 YY    0.000000  -0.013147   0.012163   0.004568   0.000000
   31  O  2 ZZ    0.000000   0.010493   0.018522   0.009820   0.000000
   32  O  2 XY    0.023439   0.000000   0.000000   0.000000  -0.023564
   33  O  2 XZ    0.000000  -0.017886   0.013551   0.001264   0.000000
   34  O  2 YZ   -0.006035   0.000000   0.000000   0.000000   0.015942
   35  O  3  S    0.000000   0.042882   0.043159  -0.008130   0.000000
   36  O  3  S    0.000000  -0.267016  -0.261495   0.070614   0.000000
   37  O  3  S    0.000000  -0.041557  -0.079383   0.009948   0.000000
   38  O  3  X    0.000000   0.098948   0.134061  -0.178390   0.000000
   39  O  3  Y   -0.185190   0.000000   0.000000   0.000000   0.575724
   40  O  3  Z    0.000000   0.108917  -0.021457   0.601566   0.000000
   41  O  3  X    0.000000   0.179129   0.106092   0.190707   0.000000
   42  O  3  Y    0.149038   0.000000   0.000000   0.000000  -0.710074
   43  O  3  Z    0.000000   0.015638   0.191636  -0.745635   0.000000
   44  O  3 XX    0.000000   0.002655   0.030685   0.014388   0.000000
   45  O  3 YY    0.000000  -0.013147  -0.012163  -0.004568   0.000000
   46  O  3 ZZ    0.000000   0.010493  -0.018522  -0.009820   0.000000
   47  O  3 XY   -0.023439   0.000000   0.000000   0.000000  -0.023564
   48  O  3 XZ    0.000000   0.017886   0.013551   0.001264   0.000000
   49  O  3 YZ   -0.006035   0.000000   0.000000   0.000000  -0.015942

                     31         32         33         34         35
                    0.8043     0.8056     0.8325     0.8335     1.4931
                     A1         B2         B1         A1         B1  
    1  S  1  S   -0.006545   0.000000   0.000000   0.010251   0.000000
    2  S  1  S    0.045115   0.000000   0.000000  -0.010988   0.000000
    3  S  1  S   -0.019448   0.000000   0.000000   0.103450   0.000000
    4  S  1  S   -0.363006   0.000000   0.000000   0.183096   0.000000
    5  S  1  X    0.000000   0.000000  -0.103508   0.000000  -0.008566
    6  S  1  Y    0.000000  -0.038680   0.000000   0.000000   0.000000
    7  S  1  Z    0.022399   0.000000   0.000000  -0.062104   0.000000
    8  S  1  X    0.000000   0.000000   0.452928   0.000000  -0.046566
    9  S  1  Y    0.000000   0.196747   0.000000   0.000000   0.000000
   10  S  1  Z   -0.074455   0.000000   0.000000   0.288433   0.000000
   11  S  1  X    0.000000   0.000000  -0.086029   0.000000   0.934918
   12  S  1  Y    0.000000  -0.474507   0.000000   0.000000   0.000000
   13  S  1  Z   -0.302704   0.000000   0.000000  -0.303192   0.000000
   14  S  1 XX    0.106992   0.000000   0.000000   0.374426   0.000000
   15  S  1 YY    0.147937   0.000000   0.000000  -0.058281   0.000000
   16  S  1 ZZ   -0.254928   0.000000   0.000000  -0.316146   0.000000
   17  S  1 XY    0.000000   0.000000   0.000000   0.000000   0.000000
   18  S  1 XZ    0.000000   0.000000   0.200623   0.000000   0.430658
   19  S  1 YZ    0.000000  -0.306136   0.000000   0.000000   0.000000
   20  O  2  S   -0.022733   0.000000  -0.019650   0.013438   0.020435
   21  O  2  S    0.234192   0.000000   0.237620  -0.156435  -1.108894
   22  O  2  S   -0.106100   0.000000  -0.195696   0.137532   1.429728
   23  O  2  X   -0.587732   0.000000  -0.565317   0.123105  -0.100687
   24  O  2  Y    0.000000  -0.603191   0.000000   0.000000   0.000000
   25  O  2  Z   -0.114747   0.000000   0.177854  -0.563548   0.115509
   26  O  2  X    0.821417   0.000000   0.765195  -0.186040   0.379425
   27  O  2  Y    0.000000   0.793007   0.000000   0.000000   0.000000
   28  O  2  Z    0.120660   0.000000  -0.251426   0.760021  -0.358038
   29  O  2 XX   -0.027125   0.000000  -0.034091   0.004109  -0.084783
   30  O  2 YY    0.008977   0.000000   0.024952  -0.020931   0.080872
   31  O  2 ZZ    0.018148   0.000000   0.009138   0.016822   0.003911
   32  O  2 XY    0.000000  -0.022952   0.000000   0.000000   0.000000
   33  O  2 XZ   -0.000770   0.000000   0.033759  -0.046603   0.134941
   34  O  2 YZ    0.000000   0.009912   0.000000   0.000000   0.000000
   35  O  3  S   -0.022733   0.000000   0.019650   0.013438  -0.020435
   36  O  3  S    0.234192   0.000000  -0.237620  -0.156435   1.108894
   37  O  3  S   -0.106100   0.000000   0.195696   0.137532  -1.429728
   38  O  3  X    0.587732   0.000000  -0.565317  -0.123105  -0.100687
   39  O  3  Y    0.000000  -0.603191   0.000000   0.000000   0.000000
   40  O  3  Z   -0.114747   0.000000  -0.177854  -0.563548  -0.115509
   41  O  3  X   -0.821417   0.000000   0.765195   0.186040   0.379425
   42  O  3  Y    0.000000   0.793007   0.000000   0.000000   0.000000
   43  O  3  Z    0.120660   0.000000   0.251426   0.760021   0.358038
   44  O  3 XX   -0.027125   0.000000   0.034091   0.004109   0.084783
   45  O  3 YY    0.008977   0.000000  -0.024952  -0.020931  -0.080872
   46  O  3 ZZ    0.018148   0.000000  -0.009138   0.016822  -0.003911
   47  O  3 XY    0.000000   0.022952   0.000000   0.000000   0.000000
   48  O  3 XZ    0.000770   0.000000   0.033759   0.046603   0.134941
   49  O  3 YZ    0.000000   0.009912   0.000000   0.000000   0.000000

                     36         37         38         39         40
                    1.5140     2.0842     2.0879     2.0923     2.0935
                     A1         A2         B1         B2         B2  
    1  S  1  S   -0.030622   0.000000   0.000000   0.000000   0.000000
    2  S  1  S   -0.271431   0.000000   0.000000   0.000000   0.000000
    3  S  1  S   -0.679320   0.000000   0.000000   0.000000   0.000000
    4  S  1  S    1.383338   0.000000   0.000000   0.000000   0.000000
    5  S  1  X    0.000000   0.000000  -0.002648   0.000000   0.000000
    6  S  1  Y    0.000000   0.000000   0.000000  -0.003288   0.001149
    7  S  1  Z   -0.004560   0.000000   0.000000   0.000000   0.000000
    8  S  1  X    0.000000   0.000000   0.027451   0.000000   0.000000
    9  S  1  Y    0.000000   0.000000   0.000000   0.039797  -0.014675
   10  S  1  Z   -0.028804   0.000000   0.000000   0.000000   0.000000
   11  S  1  X    0.000000   0.000000  -0.121493   0.000000   0.000000
   12  S  1  Y    0.000000   0.000000   0.000000  -0.132311   0.049300
   13  S  1  Z    0.569475   0.000000   0.000000   0.000000   0.000000
   14  S  1 XX    0.334697   0.000000   0.000000   0.000000   0.000000
   15  S  1 YY   -0.295756   0.000000   0.000000   0.000000   0.000000
   16  S  1 ZZ   -0.038941   0.000000   0.000000   0.000000   0.000000
   17  S  1 XY    0.000000   0.111992   0.000000   0.000000   0.000000
   18  S  1 XZ    0.000000   0.000000   0.033721   0.000000   0.000000
   19  S  1 YZ    0.000000   0.000000   0.000000  -0.081860   0.013624
   20  O  2  S   -0.019205   0.000000   0.000134   0.000000   0.000000
   21  O  2  S    1.081365   0.000000   0.049601   0.000000   0.000000
   22  O  2  S   -1.368169   0.000000  -0.084538   0.000000   0.000000
   23  O  2  X    0.166986   0.000000  -0.001635   0.000000   0.000000
   24  O  2  Y    0.000000  -0.014680   0.000000  -0.027597   0.009775
   25  O  2  Z   -0.036087   0.000000  -0.017155   0.000000   0.000000
   26  O  2  X   -0.544260   0.000000  -0.015344   0.000000   0.000000
   27  O  2  Y    0.000000   0.018598   0.000000   0.051815  -0.017358
   28  O  2  Z    0.164585   0.000000   0.036596   0.000000   0.000000
   29  O  2 XX    0.140238   0.000000   0.537868   0.000000   0.000000
   30  O  2 YY   -0.096520   0.000000  -0.346899   0.000000   0.000000
   31  O  2 ZZ   -0.043718   0.000000  -0.190969   0.000000   0.000000
   32  O  2 XY    0.000000   0.705518   0.000000   0.700426   0.109132
   33  O  2 XZ   -0.113727   0.000000   0.451026   0.000000   0.000000
   34  O  2 YZ    0.000000  -0.044147   0.000000  -0.111132   0.698982
   35  O  3  S   -0.019205   0.000000  -0.000134   0.000000   0.000000
   36  O  3  S    1.081365   0.000000  -0.049601   0.000000   0.000000
   37  O  3  S   -1.368169   0.000000   0.084538   0.000000   0.000000
   38  O  3  X   -0.166986   0.000000  -0.001635   0.000000   0.000000
   39  O  3  Y    0.000000   0.014680   0.000000  -0.027597   0.009775
   40  O  3  Z   -0.036087   0.000000   0.017155   0.000000   0.000000
   41  O  3  X    0.544260   0.000000  -0.015344   0.000000   0.000000
   42  O  3  Y    0.000000  -0.018598   0.000000   0.051815  -0.017358
   43  O  3  Z    0.164585   0.000000  -0.036596   0.000000   0.000000
   44  O  3 XX    0.140238   0.000000  -0.537868   0.000000   0.000000
   45  O  3 YY   -0.096520   0.000000   0.346899   0.000000   0.000000
   46  O  3 ZZ   -0.043718   0.000000   0.190969   0.000000   0.000000
   47  O  3 XY    0.000000   0.705518   0.000000  -0.700426  -0.109132
   48  O  3 XZ    0.113727   0.000000   0.451026   0.000000   0.000000
   49  O  3 YZ    0.000000   0.044147   0.000000  -0.111132   0.698982

                     41         42         43         44         45
                    2.0937     2.0948     2.0952     2.1227     2.2499
                     A1         B1         A2         A1         A1  
    1  S  1  S   -0.000689   0.000000   0.000000  -0.003609  -0.006977
    2  S  1  S   -0.007425   0.000000   0.000000  -0.032161  -0.151813
    3  S  1  S   -0.017070   0.000000   0.000000  -0.080573  -0.274133
    4  S  1  S    0.036993   0.000000   0.000000   0.161305   0.732991
    5  S  1  X    0.000000  -0.004157   0.000000   0.000000   0.000000
    6  S  1  Y    0.000000   0.000000   0.000000   0.000000   0.000000
    7  S  1  Z   -0.000501   0.000000   0.000000   0.003039  -0.040931
    8  S  1  X    0.000000  -0.000249   0.000000   0.000000   0.000000
    9  S  1  Y    0.000000   0.000000   0.000000   0.000000   0.000000
   10  S  1  Z   -0.000743   0.000000   0.000000  -0.043640   0.116211
   11  S  1  X    0.000000   0.101334   0.000000   0.000000   0.000000
   12  S  1  Y    0.000000   0.000000   0.000000   0.000000   0.000000
   13  S  1  Z    0.019717   0.000000   0.000000   0.193636   0.229736
   14  S  1 XX    0.010115   0.000000   0.000000  -0.082687   0.327435
   15  S  1 YY   -0.025641   0.000000   0.000000  -0.033172  -0.268373
   16  S  1 ZZ    0.015526   0.000000   0.000000   0.115859  -0.059062
   17  S  1 XY    0.000000   0.000000  -0.066198   0.000000   0.000000
   18  S  1 XZ    0.000000  -0.002785   0.000000   0.000000   0.000000
   19  S  1 YZ    0.000000   0.000000   0.000000   0.000000   0.000000
   20  O  2  S    0.000675  -0.000767   0.000000   0.000093   0.001658
   21  O  2  S    0.017886  -0.054151   0.000000   0.083751   0.362128
   22  O  2  S   -0.030058   0.089982   0.000000  -0.133894  -0.524877
   23  O  2  X    0.004292  -0.006067   0.000000   0.031650   0.098836
   24  O  2  Y    0.000000   0.000000   0.008163   0.000000   0.000000
   25  O  2  Z   -0.000211   0.015580   0.000000   0.023306  -0.046077
   26  O  2  X   -0.016253   0.029104   0.000000  -0.090351  -0.315864
   27  O  2  Y    0.000000   0.000000  -0.010513   0.000000   0.000000
   28  O  2  Z    0.003068  -0.035699   0.000000  -0.030465   0.145533
   29  O  2 XX   -0.178717  -0.138845   0.000000  -0.523605  -0.431594
   30  O  2 YY    0.615692  -0.530694   0.000000  -0.025387   0.340350
   31  O  2 ZZ   -0.436975   0.669539   0.000000   0.548992   0.091243
   32  O  2 XY    0.000000   0.000000   0.044455   0.000000   0.000000
   33  O  2 XZ   -0.313896   0.026269   0.000000  -0.343103   0.529274
   34  O  2 YZ    0.000000   0.000000   0.705603   0.000000   0.000000
   35  O  3  S    0.000675   0.000767   0.000000   0.000093   0.001658
   36  O  3  S    0.017886   0.054151   0.000000   0.083751   0.362128
   37  O  3  S   -0.030058  -0.089982   0.000000  -0.133894  -0.524877
   38  O  3  X   -0.004292  -0.006067   0.000000  -0.031650  -0.098836
   39  O  3  Y    0.000000   0.000000  -0.008163   0.000000   0.000000
   40  O  3  Z   -0.000211  -0.015580   0.000000   0.023306  -0.046077
   41  O  3  X    0.016253   0.029104   0.000000   0.090351   0.315864
   42  O  3  Y    0.000000   0.000000   0.010513   0.000000   0.000000
   43  O  3  Z    0.003068   0.035699   0.000000  -0.030465   0.145533
   44  O  3 XX   -0.178717   0.138845   0.000000  -0.523605  -0.431594
   45  O  3 YY    0.615692   0.530694   0.000000  -0.025387   0.340350
   46  O  3 ZZ   -0.436975  -0.669539   0.000000   0.548992   0.091243
   47  O  3 XY    0.000000   0.000000   0.044455   0.000000   0.000000
   48  O  3 XZ    0.313896   0.026269   0.000000   0.343103  -0.529274
   49  O  3 YZ    0.000000   0.000000  -0.705603   0.000000   0.000000

                     46
                    2.2578
                     B1  
    1  S  1  S    0.000000
    2  S  1  S    0.000000
    3  S  1  S    0.000000
    4  S  1  S    0.000000
    5  S  1  X    0.069323
    6  S  1  Y    0.000000
    7  S  1  Z    0.000000
    8  S  1  X   -0.201509
    9  S  1  Y    0.000000
   10  S  1  Z    0.000000
   11  S  1  X   -0.321510
   12  S  1  Y    0.000000
   13  S  1  Z    0.000000
   14  S  1 XX    0.000000
   15  S  1 YY    0.000000
   16  S  1 ZZ    0.000000
   17  S  1 XY    0.000000
   18  S  1 XZ   -0.370346
   19  S  1 YZ    0.000000
   20  O  2  S    0.001489
   21  O  2  S    0.318354
   22  O  2  S   -0.463937
   23  O  2  X    0.077738
   24  O  2  Y    0.000000
   25  O  2  Z   -0.052343
   26  O  2  X   -0.243423
   27  O  2  Y    0.000000
   28  O  2  Z    0.167381
   29  O  2 XX   -0.436006
   30  O  2 YY    0.309157
   31  O  2 ZZ    0.126849
   32  O  2 XY    0.000000
   33  O  2 XZ    0.537744
   34  O  2 YZ    0.000000
   35  O  3  S   -0.001489
   36  O  3  S   -0.318354
   37  O  3  S    0.463937
   38  O  3  X    0.077738
   39  O  3  Y    0.000000
   40  O  3  Z    0.052343
   41  O  3  X   -0.243423
   42  O  3  Y    0.000000
   43  O  3  Z   -0.167381
   44  O  3 XX    0.436006
   45  O  3 YY   -0.309157
   46  O  3 ZZ   -0.126849
   47  O  3 XY    0.000000
   48  O  3 XZ    0.537744
   49  O  3 YZ    0.000000
 ...... END OF RHF CALCULATION ......
 STEP CPU TIME =     3.64 TOTAL CPU TIME =        3.8 (    0.1 MIN)
 TOTAL WALL CLOCK TIME=        3.8 SECONDS, CPU UTILIZATION IS 100.00%

     ---------------------------------------------------------------------
     PROPERTIES FOR THE PBE      DFT FUNCTIONAL (RHF  TYPE) DENSITY MATRIX
     ---------------------------------------------------------------------

          -----------------
          ENERGY COMPONENTS
          -----------------

         WAVEFUNCTION NORMALIZATION =       1.0000000000

                ONE ELECTRON ENERGY =    -909.6894119338
                TWO ELECTRON ENERGY =     832.1780639575
           NUCLEAR REPULSION ENERGY =      77.5113479762
                                      ------------------
                       TOTAL ENERGY =       0.0000000000

 ELECTRON-ELECTRON POTENTIAL ENERGY =     832.1780639575
  NUCLEUS-ELECTRON POTENTIAL ENERGY =   -1456.1761343538
   NUCLEUS-NUCLEUS POTENTIAL ENERGY =      77.5113479762
                                      ------------------
             TOTAL POTENTIAL ENERGY =    -546.4867224201
               TOTAL KINETIC ENERGY =     546.4867224201
                 VIRIAL RATIO (V/T) =       1.0000000000

          ---------------------------------------
          MULLIKEN AND LOWDIN POPULATION ANALYSES
          ---------------------------------------

     ATOMIC MULLIKEN POPULATION IN EACH MOLECULAR ORBITAL

                      1          2          3          4          5

                  2.000000   2.000000   2.000000   2.000000   2.000000

    1             1.999998   0.000340   0.000436   1.999874   2.000012
    2             0.000001   0.999830   0.999782   0.000063  -0.000006
    3             0.000001   0.999830   0.999782   0.000063  -0.000006

                      6          7          8          9         10

                  2.000000   2.000000   2.000000   2.000000   2.000000

    1             2.000000   2.000001   0.369098   0.084735   1.550983
    2             0.000000  -0.000001   0.815451   0.957632   0.224509
    3             0.000000  -0.000001   0.815451   0.957632   0.224509

                     11         12         13         14         15

                  2.000000   2.000000   2.000000   2.000000   2.000000

    1             0.782038   1.164417   1.296656   0.013050   0.064606
    2             0.608981   0.417791   0.351672   0.993475   0.967697
    3             0.608981   0.417791   0.351672   0.993475   0.967697

                     16

                  2.000000

    1             0.048720
    2             0.975640
    3             0.975640

               ----- POPULATIONS IN EACH AO -----
                             MULLIKEN      LOWDIN
              1  S  1  S      2.00021     1.99611
              2  S  1  S      2.01099     1.97563
              3  S  1  S      1.02317     0.66134
              4  S  1  S      0.91505     0.57734
              5  S  1  X      1.99600     1.95235
              6  S  1  Y      1.99645     1.95812
              7  S  1  Z      1.99643     1.95723
              8  S  1  X      0.60964     0.57613
              9  S  1  Y      0.72983     0.71468
             10  S  1  Z      0.71572     0.69307
             11  S  1  X      0.28576     0.39107
             12  S  1  Y      0.56904     0.61286
             13  S  1  Z      0.45225     0.52604
             14  S  1 XX      0.01108     0.23693
             15  S  1 YY      0.02441     0.25617
             16  S  1 ZZ      0.01305     0.24982
             17  S  1 XY      0.02454     0.01471
             18  S  1 XZ      0.00133     0.03225
             19  S  1 YZ      0.00000     0.00129
             20  O  2  S      1.99799     1.98180
             21  O  2  S      0.86758     0.67858
             22  O  2  S      1.11967     0.63752
             23  O  2  X      0.74645     0.70967
             24  O  2  Y      0.81542     0.78806
             25  O  2  Z      1.05770     1.02536
             26  O  2  X      0.50390     0.56679
             27  O  2  Y      0.52877     0.55992
             28  O  2  Z      0.67019     0.71480
             29  O  2 XX      0.00057     0.21545
             30  O  2 YY      0.00147     0.21679
             31  O  2 ZZ      0.00071     0.21006
             32  O  2 XY      0.00186     0.00088
             33  O  2 XZ      0.00026     0.00245
             34  O  2 YZ      0.00000     0.00031
             35  O  3  S      1.99799     1.98180
             36  O  3  S      0.86758     0.67858
             37  O  3  S      1.11967     0.63752
             38  O  3  X      0.74645     0.70967
             39  O  3  Y      0.81542     0.78806
             40  O  3  Z      1.05770     1.02536
             41  O  3  X      0.50390     0.56679
             42  O  3  Y      0.52877     0.55992
             43  O  3  Z      0.67019     0.71480
             44  O  3 XX      0.00057     0.21545
             45  O  3 YY      0.00147     0.21679
             46  O  3 ZZ      0.00071     0.21006
             47  O  3 XY      0.00186     0.00088
             48  O  3 XZ      0.00026     0.00245
             49  O  3 YZ      0.00000     0.00031

          ----- MULLIKEN ATOMIC OVERLAP POPULATIONS -----
          (OFF-DIAGONAL ELEMENTS NEED TO BE MULTIPLIED BY 2)

             1           2           3

    1   14.9780137
    2    0.1984756   8.1198383
    3    0.1984756  -0.0057964   8.1198383

          TOTAL MULLIKEN AND LOWDIN ATOMIC POPULATIONS
       ATOM         MULL.POP.    CHARGE          LOW.POP.     CHARGE
    1 S            15.374965    0.625035        15.383138    0.616862
    2 O             8.312518   -0.312518         8.308431   -0.308431
    3 O             8.312518   -0.312518         8.308431   -0.308431

          MULLIKEN SPHERICAL HARMONIC POPULATIONS
       ATOM           S       P       D      F      G      H      I    TOTAL
    1 S             5.95    9.35    0.07   0.00   0.00   0.00   0.00   15.37
    2 O             3.99    4.32    0.00   0.00   0.00   0.00   0.00    8.31
    3 O             3.99    4.32    0.00   0.00   0.00   0.00   0.00    8.31

          -------------------------------
          BOND ORDER AND VALENCE ANALYSIS     BOND ORDER THRESHOLD=0.050
          -------------------------------

                   BOND                       BOND                       BOND
  ATOM PAIR DIST  ORDER      ATOM PAIR DIST  ORDER      ATOM PAIR DIST  ORDER
    1   2  2.000  1.503        1   3  2.000  1.503        2   3  3.464  0.671

                       TOTAL       BONDED        FREE
      ATOM            VALENCE     VALENCE     VALENCE
    1 S                 3.007       3.007       0.000
    2 O                 2.174       2.174       0.000
    3 O                 2.174       2.174       0.000

          ---------------------
          ELECTROSTATIC MOMENTS
          ---------------------

 POINT   1           X           Y           Z (BOHR)    CHARGE
                 0.000000    0.000000    0.000000        0.00 (A.U.)
         DX          DY          DZ         /D/  (DEBYE)
     0.000000    0.000000   -2.226055    2.226055
 ...... END OF PROPERTY EVALUATION ......
 STEP CPU TIME =     0.00 TOTAL CPU TIME =        3.8 (    0.1 MIN)
 TOTAL WALL CLOCK TIME=        3.8 SECONDS, CPU UTILIZATION IS  99.74%
               580000  WORDS OF DYNAMIC MEMORY USED
 EXECUTION OF GAMESS TERMINATED NORMALLY Thu Feb 26 00:22:47 2015
 DDI: 263624 bytes (0.3 MB / 0 MWords) used by master data server.

 ----------------------------------------
 CPU timing information for all processes
 ========================================
 0: 3.795 + 0.34 = 3.830
 ----------------------------------------
 ddikick.x: exited gracefully.
----- accounting info -----
Files used on the master node dftfe.crc.nd.edu were:
-rw-r--r-- 1 pmehta1 campus   37475 Feb 26 00:22 /tmp/gamess.dat
-rw-r--r-- 1 pmehta1 campus     142 Feb 26 00:22 /tmp/gamess.F05
-rw-r--r-- 1 pmehta1 campus 1800240 Feb 26 00:22 /tmp/gamess.F08
-rw-r--r-- 1 pmehta1 campus 1220440 Feb 26 00:22 /tmp/gamess.F10
Thu Feb 26 00:22:50 EST 2015
0.238u 0.193s 0:07.28 5.7%	0+0k 0+104io 0pf+0w
