----- GAMESS execution script 'rungms' -----
This job is running on host dftfe.crc.nd.edu
under operating system Linux at Thu Feb 26 00:21:45 EST 2015
Available scratch disk space (Kbyte units) at beginning of the job is
Filesystem     1K-blocks     Used Available Use% Mounted on
/dev/sda2      147771864 22817676 117447756  17% /
GAMESS temporary binary files will be written to /tmp
GAMESS supplementary output files will be written to /tmp
Copying input file gamess.inp to your run's scratch directory...

 Distributed Data Interface kickoff program.
 Initiating 1 compute processes on 1 nodes to run the following command:
 /opt/crc/gamess/2012R1/gamess/gamess.00.x gamess 

          ******************************************************
          *         GAMESS VERSION =  1 MAY 2012 (R1)          *
          *             FROM IOWA STATE UNIVERSITY             *
          * M.W.SCHMIDT, K.K.BALDRIDGE, J.A.BOATZ, S.T.ELBERT, *
          *   M.S.GORDON, J.H.JENSEN, S.KOSEKI, N.MATSUNAGA,   *
          *          K.A.NGUYEN, S.J.SU, T.L.WINDUS,           *
          *       TOGETHER WITH M.DUPUIS, J.A.MONTGOMERY       *
          *         J.COMPUT.CHEM.  14, 1347-1363(1993)        *
          **************** 64 BIT LINUX VERSION ****************

  SINCE 1993, STUDENTS AND POSTDOCS WORKING AT IOWA STATE UNIVERSITY
  AND ALSO IN THEIR VARIOUS JOBS AFTER LEAVING ISU HAVE MADE IMPORTANT
  CONTRIBUTIONS TO THE CODE:
     IVANA ADAMOVIC, CHRISTINE AIKENS, YURI ALEXEEV, POOJA ARORA,
     ANDREY ASADCHEV, ROB BELL, PRADIPTA BANDYOPADHYAY, JONATHAN BENTZ,
     BRETT BODE, GALINA CHABAN, WEI CHEN, CHEOL HO CHOI, PAUL DAY,
     ALBERT DEFUSCO, TIM DUDLEY, DMITRI FEDOROV, GRAHAM FLETCHER,
     MARK FREITAG, KURT GLAESEMANN, DAN KEMP, GRANT MERRILL,
     NORIYUKI MINEZAWA, JONATHAN MULLIN, TAKESHI NAGATA,
     SEAN NEDD, HEATHER NETZLOFF, BOSILJKA NJEGIC, RYAN OLSON, MIKE PAK,
     JIM SHOEMAKER, LYUDMILA SLIPCHENKO, SAROM SOK, JIE SONG,
     TETSUYA TAKETSUGU, SIMON WEBB, SOOHAENG YOO, FEDERICO ZAHARIEV

  ADDITIONAL CODE HAS BEEN PROVIDED BY COLLABORATORS IN OTHER GROUPS:
     IOWA STATE UNIVERSITY:
          JOE IVANIC, LAIMUTIS BYTAUTAS, KLAUS RUEDENBERG
     UNIVERSITY OF TOKYO: KIMIHIKO HIRAO, TAKAHITO NAKAJIMA,
          TAKAO TSUNEDA, MUNEAKI KAMIYA, SUSUMU YANAGISAWA,
          KIYOSHI YAGI, MAHITO CHIBA, SEIKEN TOKURA, NAOAKI KAWAKAMI
     UNIVERSITY OF AARHUS: FRANK JENSEN
     UNIVERSITY OF IOWA: VISVALDAS KAIRYS, HUI LI
     NATIONAL INST. OF STANDARDS AND TECHNOLOGY: WALT STEVENS, DAVID GARMER
     UNIVERSITY OF PISA: BENEDETTA MENNUCCI, JACOPO TOMASI
     UNIVERSITY OF MEMPHIS: HENRY KURTZ, PRAKASHAN KORAMBATH
     UNIVERSITY OF ALBERTA: TOBY ZENG, MARIUSZ KLOBUKOWSKI
     UNIVERSITY OF NEW ENGLAND: MARK SPACKMAN
     MIE UNIVERSITY: HIROAKI UMEDA
     MICHIGAN STATE UNIVERSITY:
          KAROL KOWALSKI, MARTA WLOCH, JEFFREY GOUR, JESSE LUTZ, PIOTR PIECUCH
     UNIVERSITY OF SILESIA: MONIKA MUSIAL, STANISLAW KUCHARSKI
     FACULTES UNIVERSITAIRES NOTRE-DAME DE LA PAIX:
          OLIVIER QUINET, BENOIT CHAMPAGNE
     UNIVERSITY OF CALIFORNIA - SANTA BARBARA: BERNARD KIRTMAN
     INSTITUTE FOR MOLECULAR SCIENCE:
          KAZUYA ISHIMURA, MICHIO KATOUDA, AND SHIGERU NAGASE
     UNIVERSITY OF NOTRE DAME: DAN CHIPMAN
     KYUSHU UNIVERSITY:
          HARUYUKI NAKANO,
          FENG LONG GU, JACEK KORCHOWIEC, MARCIN MAKOWSKI, AND YURIKO AOKI,
          HIROTOSHI MORI AND EISAKU MIYOSHI
     PENNSYLVANIA STATE UNIVERSITY:
          TZVETELIN IORDANOV, CHET SWALINA, JONATHAN SKONE,
          SHARON HAMMES-SCHIFFER
     WASEDA UNIVERSITY:
          MASATO KOBAYASHI, TOMOKO AKAMA, TSUGUKI TOUMA,
          TAKESHI YOSHIKAWA, YASUHIRO IKABATA, HIROMI NAKAI
     UNIVERSITY OF NEBRASKA:
          PEIFENG SU, DEJUN SI, NANDUN THELLAMUREGE, YALI WANG, HUI LI
     UNIVERSITY OF ZURICH:
          ROBERTO PEVERATI, KIM BALDRIDGE
     N. COPERNICUS UNIVERSITY AND JACKSON STATE UNIVERSITY:
          MARIA BARYSZ

 EXECUTION OF GAMESS BEGUN Thu Feb 26 00:21:45 2015

            ECHO OF THE FIRST FEW INPUT CARDS -
 INPUT CARD> $BASIS GBASIS=PC1 $END                                                         
 INPUT CARD> $CONTRL COORD=ZMT ISPHER=1 RUNTYP=ENERGY DFTTYP=PBE $END                       
 INPUT CARD>                                                                                
 INPUT CARD> $DATA                                                                          
 INPUT CARD>Title                                                                           
 INPUT CARD>Cnv 2                                                                           
 INPUT CARD>                                                                                
 INPUT CARD>S                                                                               
 INPUT CARD>O 1 1.90                                                                        
 INPUT CARD>O 1 1.90 2 120.0                                                                
 INPUT CARD> $END                                                                           
    1000000 WORDS OF MEMORY AVAILABLE

     BASIS OPTIONS
     -------------
     GBASIS=PC1          IGAUSS=       0      POLAR=NONE    
     NDFUNC=       0     NFFUNC=       0     DIFFSP=       F
     NPFUNC=       0      DIFFS=       F     BASNAM=        


     RUN TITLE
     ---------
 Title                                                                           

 THE POINT GROUP OF THE MOLECULE IS CNV     
 THE ORDER OF THE PRINCIPAL AXIS IS     2

 YOUR FULLY SUBSTITUTED Z-MATRIX IS
 S   
 O      1   1.9000000
 O      1   1.9000000  2  120.0000

 THE MOMENTS OF INERTIA ARE (AMU-ANGSTROM**2)
 IXX=    14.431   IYY=    86.612   IZZ=   101.044

 ATOM      ATOMIC                      COORDINATES (BOHR)
           CHARGE         X                   Y                   Z
 S          16.0     0.0000000000        0.0000000000       -0.8978689418
 O           8.0    -3.1094463520        0.0000000000        0.8973707466
 O           8.0     3.1094463520        0.0000000000        0.8973707466

          INTERNUCLEAR DISTANCES (ANGS.)
          ------------------------------

                1 S          2 O          3 O     

   1 S       0.0000000    1.9000000 *  1.9000000 *
   2 O       1.9000000 *  0.0000000    3.2908965  
   3 O       1.9000000 *  3.2908965    0.0000000  

  * ... LESS THAN  3.000


     ATOMIC BASIS SET
     ----------------
 THE CONTRACTED PRIMITIVE FUNCTIONS HAVE BEEN UNNORMALIZED
 THE CONTRACTED BASIS FUNCTIONS ARE NOW NORMALIZED TO UNITY

  SHELL TYPE  PRIMITIVE        EXPONENT          CONTRACTION COEFFICIENT(S)

 S         

      1   S       1         55510.0000000    0.000587229760
      1   S       2          8326.7000000    0.004532413947
      1   S       3          1895.6000000    0.023265261648
      1   S       4           536.7700000    0.089696133027
      1   S       5           174.6700000    0.254098332277
      1   S       6            62.5780000    0.438665087637
      1   S       7            23.5730000    0.314547135094
      1   S       8             5.8908000    0.032727897102

      2   S       9          8326.7000000   -0.000019755715
      2   S      10          1895.6000000   -0.000043822381
      2   S      11           536.7700000   -0.001730264906
      2   S      12           174.6700000   -0.009381263460
      2   S      13            62.5780000   -0.064050766303
      2   S      14            23.5730000   -0.082478179196
      2   S      15             5.8908000    0.478342956889
      2   S      16             2.1852000    0.626896670208

      3   S      17          1895.6000000    0.000016227260
      3   S      18           536.7700000    0.000191135619
      3   S      19           174.6700000    0.001952069674
      3   S      20            62.5780000    0.010578701087
      3   S      21            23.5730000    0.022164934551
      3   S      22             5.8908000   -0.184968323118
      3   S      23             2.1852000   -0.480920750976
      3   S      24             0.4528200    1.243822243872

      4   S      25             0.1620200    1.000000000000

      5   P      26           395.4500000    0.004642761329
      5   P      27            92.8340000    0.036023396489
      5   P      28            29.2660000    0.149058869978
      5   P      29            10.5950000    0.360033266263
      5   P      30             4.0272000    0.455756476221
      5   P      31             1.5484000    0.206167664178

      6   P      32            92.8340000    0.000169901442
      6   P      33            29.2660000   -0.002541839934
      6   P      34            10.5950000   -0.007867614595
      6   P      35             4.0272000   -0.037231009184
      6   P      36             1.5484000    0.161417246830
      6   P      37             0.4613400    0.902230419976

      7   P      38             0.1313100    1.000000000000

      8   D      39             0.5500000    1.000000000000

 O         

     15   S      40          2306.7000000    0.005424388755
     15   S      41           347.1500000    0.040474749465
     15   S      42            78.8900000    0.180219634554
     15   S      43            21.8760000    0.462370311787
     15   S      44             6.6646000    0.454888396263

     16   S      45           347.1500000   -0.000655003786
     16   S      46            78.8900000   -0.005362052952
     16   S      47            21.8760000   -0.074902158894
     16   S      48             6.6646000   -0.181442579655
     16   S      49             1.0669000    1.102006874042

     17   S      50             0.3070000    1.000000000000

     18   P      51            17.0220000    0.068979967443
     18   P      52             3.6838000    0.351985516325
     18   P      53             0.9923400    0.724036547822

     19   P      54             0.2448700    1.000000000000

     20   D      55             1.0000000    1.000000000000

 TOTAL NUMBER OF BASIS SET SHELLS             =   20
 NUMBER OF CARTESIAN GAUSSIAN BASIS FUNCTIONS =   49
 NOTE: THIS RUN WILL RESTRICT THE MO VARIATION SPACE TO SPHERICAL HARMONICS.
 THE NUMBER OF ORBITALS KEPT IN THE VARIATIONAL SPACE WILL BE PRINTED LATER.
 NUMBER OF ELECTRONS                          =   32
 CHARGE OF MOLECULE                           =    0
 SPIN MULTIPLICITY                            =    1
 NUMBER OF OCCUPIED ORBITALS (ALPHA)          =   16
 NUMBER OF OCCUPIED ORBITALS (BETA )          =   16
 TOTAL NUMBER OF ATOMS                        =    3
 THE NUCLEAR REPULSION ENERGY IS       81.5908926066

     LEBEDEV GRID-BASED DFT OPTIONS
     ------------------------------
     DFTTYP=PBE     
     NRAD  =      96     NLEB  =     302
     NRAD0 =      24     NLEB0 =     110
     SWOFF =    5.00E-03 (PURE SCF -> DFT)
     SWITCH=    3.00E-04 (COARSE -> TIGHT GRID)
     THRESH=    0.00E+00 GTHRE=    1.00E+00

 GRIMME'S EMPIRICAL DISPERSION CORRECTION= F

     $CONTRL OPTIONS
     ---------------
 SCFTYP=RHF          RUNTYP=ENERGY       EXETYP=RUN     
 MPLEVL=       0     CITYP =NONE         CCTYP =NONE         VBTYP =NONE    
 DFTTYP=PBE          TDDFT =NONE    
 MULT  =       1     ICHARG=       0     NZVAR =       0     COORD =ZMT     
 PP    =NONE         RELWFN=NONE         LOCAL =NONE         NUMGRD=       F
 ISPHER=       1     NOSYM =       0     MAXIT =      30     UNITS =ANGS    
 PLTORB=       F     MOLPLT=       F     AIMPAC=       F     FRIEND=        
 NPRINT=       7     IREST =       0     GEOM  =INPUT   
 NORMF =       0     NORMP =       0     ITOL  =      20     ICUT  =       9
 INTTYP=BEST         GRDTYP=BEST         QMTTOL= 1.0E-06

     $SYSTEM OPTIONS
     ---------------
  REPLICATED MEMORY=     1000000 WORDS (ON EVERY NODE).
 DISTRIBUTED MEMDDI=           0 MILLION WORDS IN AGGREGATE,
 MEMDDI DISTRIBUTED OVER   1 PROCESSORS IS           0 WORDS/PROCESSOR.
 TOTAL MEMORY REQUESTED ON EACH PROCESSOR=     1000000 WORDS.
 TIMLIM=      525600.00 MINUTES, OR     365.0 DAYS.
 PARALL= F  BALTYP=  DLB     KDIAG=    0  COREFL= F
 MXSEQ2=     300 MXSEQ3=     150

          ----------------
          PROPERTIES INPUT
          ----------------

     MOMENTS            FIELD           POTENTIAL          DENSITY
 IEMOM =       1   IEFLD =       0   IEPOT =       0   IEDEN =       0
 WHERE =COMASS     WHERE =NUCLEI     WHERE =NUCLEI     WHERE =NUCLEI  
 OUTPUT=BOTH       OUTPUT=BOTH       OUTPUT=BOTH       OUTPUT=BOTH    
 IEMINT=       0   IEFINT=       0                     IEDINT=       0
                                                       MORB  =       0
          EXTRAPOLATION IN EFFECT
          DIIS IN EFFECT
 ORBITAL PRINTING OPTION: NPREO=     1    49     2     1

     -------------------------------
     INTEGRAL TRANSFORMATION OPTIONS
     -------------------------------
     NWORD  =            0
     CUTOFF = 1.0E-09     MPTRAN =       0
     DIRTRF =       F     AOINTS =DUP     

          ----------------------
          INTEGRAL INPUT OPTIONS
          ----------------------
 NOPK  =       1 NORDER=       0 SCHWRZ=       F

   --- ENCODED Z MATRIX ---
 COORD  TYPE   I   J   K   L   M   N
    1      1    3   1
    2      1    2   1
    3      2    2   1   3

 THE DETERMINANT OF THE G MATRIX IS 10**(    -4)

 THE DETERMINANT OF THE G MATRIX IS 10**(    -4)
 * * * WARNING * * *
 YOUR B MATRIX HAS A SMALL DETERMINANT.
 THIS SUGGESTS YOU MAY HAVE BADLY CHOSEN COORDINATES.

     ------------------------------------------
     THE POINT GROUP IS CNV, NAXIS= 2, ORDER= 4
     ------------------------------------------

 -- VARIATIONAL SPACE WILL BE RESTRICTED TO PURE SPHERICAL HARMONICS ONLY --
 AFTER EXCLUDING CONTAMINANT COMBINATIONS FROM THE CARTESIAN GAUSSIAN BASIS
 SET, THE NUMBER OF SPHERICAL HARMONICS KEPT IN THE VARIATION SPACE IS   46

     DIMENSIONS OF THE SYMMETRY SUBSPACES ARE
 A1  =   19     A2  =    5     B1  =   14     B2  =    8

 ..... DONE SETTING UP THE RUN .....
 STEP CPU TIME =     0.02 TOTAL CPU TIME =        0.0 (    0.0 MIN)
 TOTAL WALL CLOCK TIME=        0.0 SECONDS, CPU UTILIZATION IS 100.00%

          ********************
          1 ELECTRON INTEGRALS
          ********************
 ...... END OF ONE-ELECTRON INTEGRALS ......
 STEP CPU TIME =     0.00 TOTAL CPU TIME =        0.0 (    0.0 MIN)
 TOTAL WALL CLOCK TIME=        0.0 SECONDS, CPU UTILIZATION IS 100.00%

          -------------
          GUESS OPTIONS
          -------------
          GUESS =HUCKEL            NORB  =       0          NORDER=       0
          MIX   =       F          PRTMO =       F          PUNMO =       F
          TOLZ  = 1.0E-08          TOLE  = 1.0E-05
          SYMDEN=       F          PURIFY=       F

 INITIAL GUESS ORBITALS GENERATED BY HUCKEL   ROUTINE.
 HUCKEL GUESS REQUIRES     21583 WORDS.

 STATISTICS FOR GENERATION OF SYMMETRY ORBITAL -Q- MATRIX
 NUMBER OF CARTESIAN ATOMIC ORBITALS=         49
 NUMBER OF SPHERICAL CONTAMINANTS DROPPED=     3
 NUMBER OF LINEARLY DEPENDENT MOS DROPPED=     0
 TOTAL NUMBER OF MOS IN VARIATION SPACE=      46

 SYMMETRIES FOR INITIAL GUESS ORBITALS FOLLOW.   BOTH SET(S).
    16 ORBITALS ARE OCCUPIED (    7 CORE ORBITALS).
     8=?A1      9=?B1     10=?A1     11=?B1     12=B2      13=A1      14=A2  
    15=B1      16=?A1     17=B2      18=A1      19=B1      20=A1      21=A1  
    22=A1      23=A1      24=A1      25=A1      26=A1  
 ...... END OF INITIAL ORBITAL SELECTION ......
 STEP CPU TIME =     0.00 TOTAL CPU TIME =        0.0 (    0.0 MIN)
 TOTAL WALL CLOCK TIME=        0.0 SECONDS, CPU UTILIZATION IS  66.67%

                    ----------------------
                    AO INTEGRAL TECHNOLOGY
                    ----------------------
     S,P,L SHELL ROTATED AXIS INTEGRALS, REPROGRAMMED BY
        KAZUYA ISHIMURA (IMS) AND JOSE SIERRA (SYNSTAR).
     S,P,D,L SHELL ROTATED AXIS INTEGRALS PROGRAMMED BY
        KAZUYA ISHIMURA (INSTITUTE FOR MOLECULAR SCIENCE).
     S,P,D,F,G SHELL TO TOTAL QUARTET ANGULAR MOMENTUM SUM 5,
        ERIC PROGRAM BY GRAHAM FLETCHER (ELORET AND NASA ADVANCED
        SUPERCOMPUTING DIVISION, AMES RESEARCH CENTER).
     S,P,D,F,G,L SHELL GENERAL RYS QUADRATURE PROGRAMMED BY
        MICHEL DUPUIS (PACIFIC NORTHWEST NATIONAL LABORATORY).

          --------------------
          2 ELECTRON INTEGRALS
          --------------------

 THE -PK- OPTION IS OFF, THE INTEGRALS ARE NOT IN SUPERMATRIX FORM.
 STORING   15000 INTEGRALS/RECORD ON DISK, USING 12 BYTES/INTEGRAL.
 TWO ELECTRON INTEGRAL EVALUATION REQUIRES   90606 WORDS OF MEMORY.
 II,JST,KST,LST =  1  1  1  1 NREC =         1 INTLOC =    1
 II,JST,KST,LST =  2  1  1  1 NREC =         1 INTLOC =    2
 II,JST,KST,LST =  3  1  1  1 NREC =         1 INTLOC =    7
 II,JST,KST,LST =  4  1  1  1 NREC =         1 INTLOC =   22
 II,JST,KST,LST =  5  1  1  1 NREC =         1 INTLOC =   56
 II,JST,KST,LST =  6  1  1  1 NREC =         1 INTLOC =  125
 II,JST,KST,LST =  7  1  1  1 NREC =         1 INTLOC =  329
 II,JST,KST,LST =  8  1  1  1 NREC =         1 INTLOC =  776
 II,JST,KST,LST =  9  1  1  1 NREC =         1 INTLOC = 2864
 II,JST,KST,LST = 10  1  1  1 NREC =         1 INTLOC = 2864
 II,JST,KST,LST = 11  1  1  1 NREC =         1 INTLOC = 2864
 II,JST,KST,LST = 12  1  1  1 NREC =         1 INTLOC = 2864
 II,JST,KST,LST = 13  1  1  1 NREC =         1 INTLOC = 2864
 II,JST,KST,LST = 14  1  1  1 NREC =         1 INTLOC = 2864
 II,JST,KST,LST = 15  1  1  1 NREC =         1 INTLOC = 2864
 II,JST,KST,LST = 16  1  1  1 NREC =         1 INTLOC = 4786
 II,JST,KST,LST = 17  1  1  1 NREC =         1 INTLOC = 7761
 II,JST,KST,LST = 18  1  1  1 NREC =         1 INTLOC =12077
 II,JST,KST,LST = 19  1  1  1 NREC =         2 INTLOC =12665
 II,JST,KST,LST = 20  1  1  1 NREC =         4 INTLOC =12558
 TOTAL NUMBER OF NONZERO TWO-ELECTRON INTEGRALS =              153615
         11 INTEGRAL RECORDS WERE STORED ON DISK FILE  8.
  ...... END OF TWO-ELECTRON INTEGRALS .....
 STEP CPU TIME =     0.15 TOTAL CPU TIME =        0.2 (    0.0 MIN)
 TOTAL WALL CLOCK TIME=        0.2 SECONDS, CPU UTILIZATION IS  94.44%

          --------------------------
               R-PBE SCF CALCULATION
          --------------------------

     NUCLEAR ENERGY =        81.5908926066
     MAXIT =   30     NPUNCH=    2
     EXTRAP=T  DAMP=F  SHIFT=F  RSTRCT=F  DIIS=T  DEM=F  SOSCF=F
         DENSITY MATRIX CONVERGENCE THRESHOLD=  1.00E-05
     COARSE -> FINE DFT GRID SWITCH THRESHOLD=  3.00E-04 (SWITCH IN $DFT)
                   HF -> DFT SWITCH THRESHOLD=  5.00E-03 (SWOFF IN $DFT)
     MEMORY REQUIRED FOR RHF ITERS=    183108 WORDS.

 DFT CODE IS SWITCHING FROM THE FINE GRID NRAD= 96,  NLEB=  302
                      TO THE COARSE GRID NRAD0= 24, NLEB0=  110

     EXCHANGE FUNCTIONAL   =PBE       
     CORRELATION FUNCTIONAL=PBE       
     DFT THRESHOLD         =.460E-07
     GRID CHANGE THRESHOLD =.300E-03
 FOR AN EULER-MACLAURIN QUADRATURE USING  96 RADIAL POINTS:
 SMALLEST GAUSSIAN PRIMITIVE EXPONENT=        0.1313100000 OF TYPE -P-
 ON ATOM NUMBER   1 HAS RADIAL NORMALIZATION=  1.000000
  LARGEST GAUSSIAN PRIMITIVE EXPONENT=    55510.0000000000 OF TYPE -S-
 ON ATOM NUMBER   1 HAS RADIAL NORMALIZATION=  0.999999
 DFT IS SWITCHED OFF, PERFORMING PURE SCF UNTIL SWOFF THRESHOLD IS REACHED.

 ITER EX DEM     TOTAL ENERGY        E CHANGE  DENSITY CHANGE    DIIS ERROR
   1  0  0     -545.6959359947  -545.6959359947   0.732574691   0.911370860
   2  1  0     -545.6108067102     0.0851292845   0.911101810   0.707891562
   3  2  0     -544.8840045314     0.7268021788   1.252378563   0.744090282
   4  3  0     -542.3579925005     2.5260120309   1.364890206   1.550340365
   5  0  0     -541.8775544031     0.4804380974   0.790482844   1.109108673
          * * *   INITIATING DIIS PROCEDURE   * * *
   6  1  0     -546.5901935959    -4.7126391928   0.516631975   0.227124172
   7  2  0     -546.3976353323     0.1925582636   0.302527073   0.406988020
   8  3  0     -546.8332817135    -0.4356463812   0.031791749   0.040472635
   9  4  0     -546.8448177192    -0.0115360057   0.034806887   0.021251961
  10  5  0     -546.8488377996    -0.0040200804   0.021351953   0.008554420
  11  6  0     -546.8502703000    -0.0014325004   0.030590196   0.007688531
  12  7  0     -546.8514907466    -0.0012204467   0.031065367   0.004780846
  13  8  0     -546.8520223353    -0.0005315887   0.003542250   0.001238942
 CONVERGED TO SWOFF, SO DFT CALCULATION IS NOW SWITCHED ON.
          * * *   INITIATING DIIS PROCEDURE   * * *
  14  9  0     -548.0389051334    -1.1868827981   0.583160280   0.100295272
  15 10  0     -548.0145626363     0.0243424971   0.445280366   0.199247051
  16 11  0     -547.9674364312     0.0471262051   0.142856053   0.294273950
  17 12  0     -548.1371310131    -0.1696945820   0.027741790   0.020098280
  18 13  0     -548.1386552880    -0.0015242749   0.003586723   0.005462220
  19 14  0     -548.1387248439    -0.0000695559   0.000604783   0.000540596
  20 15  0     -548.1387252855    -0.0000004416   0.000249460   0.000338672
 DFT CODE IS SWITCHING BACK TO THE FINE GRID
          * * *   INITIATING DIIS PROCEDURE   * * *
  21 16  0     -548.1183525750     0.0203727105   0.005504023   0.009313678
  22 17  0     -548.1184690173    -0.0001164423   0.014793063   0.004296604
  23 18  0     -548.1180042954     0.0004647219   0.013500180   0.015924188
  24 19  0     -548.1185050542    -0.0005007587   0.001371608   0.001211655
  25 20  0     -548.1185099507    -0.0000048966   0.000188701   0.000140572
  26 21  0     -548.1185100381    -0.0000000874   0.000020985   0.000005897
  27 22  0     -548.1185100383    -0.0000000002   0.000005538   0.000004628
  28 23  0     -548.1185100384     0.0000000000   0.000000419   0.000000447

          -----------------
          DENSITY CONVERGED
          -----------------
     TIME TO FORM FOCK OPERATORS=       4.1 SECONDS (       0.1 SEC/ITER)
     TIME TO SOLVE SCF EQUATIONS=       0.1 SECONDS (       0.0 SEC/ITER)

 FINAL R-PBE ENERGY IS     -548.1185100384 AFTER  28 ITERATIONS
 DFT EXCHANGE + CORRELATION ENERGY =       -42.1169946954
 TOTAL ELECTRON NUMBER             =        32.0000046162

          ------------
          EIGENVECTORS
          ------------

                      1          2          3          4          5
                  -88.2248   -18.8393   -18.8393    -7.8454    -5.8667
                     A1         A1         B1         A1         B1  
    1  S  1  S    1.002978  -0.000075   0.000000  -0.274131   0.000000
    2  S  1  S   -0.010263  -0.001080   0.000000   1.039652   0.000000
    3  S  1  S    0.001793  -0.002148   0.000000   0.040507   0.000000
    4  S  1  S   -0.001027   0.006149   0.000000  -0.013058   0.000000
    5  S  1  X    0.000000   0.000000   0.000106   0.000000   0.996899
    6  S  1  Y    0.000000   0.000000   0.000000   0.000000   0.000000
    7  S  1  Z    0.000052  -0.000070   0.000000   0.007346   0.000000
    8  S  1  X    0.000000   0.000000  -0.000354   0.000000   0.008889
    9  S  1  Y    0.000000   0.000000   0.000000   0.000000   0.000000
   10  S  1  Z    0.000003   0.000227   0.000000   0.000415   0.000000
   11  S  1  X    0.000000   0.000000  -0.004168   0.000000  -0.000076
   12  S  1  Y    0.000000   0.000000   0.000000   0.000000   0.000000
   13  S  1  Z   -0.000085   0.002625   0.000000  -0.000804   0.000000
   14  S  1 XX   -0.000023   0.001135   0.000000   0.000036   0.000000
   15  S  1 YY    0.000022  -0.000996   0.000000   0.000042   0.000000
   16  S  1 ZZ    0.000001  -0.000139   0.000000  -0.000079   0.000000
   17  S  1 XY    0.000000   0.000000   0.000000   0.000000   0.000000
   18  S  1 XZ    0.000000   0.000000  -0.001347   0.000000   0.000378
   19  S  1 YZ    0.000000   0.000000   0.000000   0.000000   0.000000
   20  O  2  S   -0.000003   0.703229   0.703226  -0.000006   0.000013
   21  O  2  S   -0.000030   0.024823   0.024765  -0.000131   0.000017
   22  O  2  S    0.000136  -0.009821  -0.009863   0.001100   0.000067
   23  O  2  X    0.000008   0.000754   0.000597   0.000019   0.000038
   24  O  2  Y    0.000000   0.000000   0.000000   0.000000   0.000000
   25  O  2  Z   -0.000010  -0.000307  -0.000468  -0.000059  -0.000026
   26  O  2  X    0.000037  -0.002324  -0.001605   0.000128   0.000008
   27  O  2  Y    0.000000   0.000000   0.000000   0.000000   0.000000
   28  O  2  Z    0.000001   0.000775   0.001454   0.000130  -0.000009
   29  O  2 XX   -0.000017  -0.000259  -0.000108  -0.000298  -0.000029
   30  O  2 YY    0.000016   0.000182   0.000146   0.000255   0.000020
   31  O  2 ZZ    0.000002   0.000077  -0.000038   0.000043   0.000009
   32  O  2 XY    0.000000   0.000000   0.000000   0.000000   0.000000
   33  O  2 XZ    0.000026   0.000196   0.000225   0.000397   0.000027
   34  O  2 YZ    0.000000   0.000000   0.000000   0.000000   0.000000
   35  O  3  S   -0.000003   0.703229  -0.703226  -0.000006  -0.000013
   36  O  3  S   -0.000030   0.024823  -0.024765  -0.000131  -0.000017
   37  O  3  S    0.000136  -0.009821   0.009863   0.001100  -0.000067
   38  O  3  X   -0.000008  -0.000754   0.000597  -0.000019   0.000038
   39  O  3  Y    0.000000   0.000000   0.000000   0.000000   0.000000
   40  O  3  Z   -0.000010  -0.000307   0.000468  -0.000059   0.000026
   41  O  3  X   -0.000037   0.002324  -0.001605  -0.000128   0.000008
   42  O  3  Y    0.000000   0.000000   0.000000   0.000000   0.000000
   43  O  3  Z    0.000001   0.000775  -0.001454   0.000130   0.000009
   44  O  3 XX   -0.000017  -0.000259   0.000108  -0.000298   0.000029
   45  O  3 YY    0.000016   0.000182  -0.000146   0.000255  -0.000020
   46  O  3 ZZ    0.000002   0.000077   0.000038   0.000043  -0.000009
   47  O  3 XY    0.000000   0.000000   0.000000   0.000000   0.000000
   48  O  3 XZ   -0.000026  -0.000196   0.000225  -0.000397   0.000027
   49  O  3 YZ    0.000000   0.000000   0.000000   0.000000   0.000000

                      6          7          8          9         10
                   -5.8637    -5.8629    -0.9015    -0.8709    -0.6724
                     B2         A1         A1         B1         A1  
    1  S  1  S    0.000000   0.001978   0.037461   0.000000   0.077953
    2  S  1  S    0.000000  -0.007723  -0.111074   0.000000  -0.224109
    3  S  1  S    0.000000  -0.000410   0.219730   0.000000   0.482701
    4  S  1  S    0.000000   0.000066   0.183238   0.000000   0.461849
    5  S  1  X    0.000000   0.000000   0.000000   0.057441   0.000000
    6  S  1  Y    0.996943   0.000000   0.000000   0.000000   0.000000
    7  S  1  Z    0.000000   0.996933  -0.029871   0.000000   0.012724
    8  S  1  X    0.000000   0.000000   0.000000  -0.117750   0.000000
    9  S  1  Y    0.008782   0.000000   0.000000   0.000000   0.000000
   10  S  1  Z    0.000000   0.008714   0.061786   0.000000  -0.024101
   11  S  1  X    0.000000   0.000000   0.000000  -0.032004   0.000000
   12  S  1  Y   -0.000160   0.000000   0.000000   0.000000   0.000000
   13  S  1  Z    0.000000  -0.000146   0.013861   0.000000  -0.026451
   14  S  1 XX    0.000000  -0.000197   0.022404   0.000000  -0.005914
   15  S  1 YY    0.000000  -0.000172  -0.017744   0.000000   0.006170
   16  S  1 ZZ    0.000000   0.000369  -0.004660   0.000000  -0.000256
   17  S  1 XY    0.000000   0.000000   0.000000   0.000000   0.000000
   18  S  1 XZ    0.000000   0.000000   0.000000  -0.029892   0.000000
   19  S  1 YZ    0.000311   0.000000   0.000000   0.000000   0.000000
   20  O  2  S    0.000000  -0.000012  -0.138236  -0.156394   0.085279
   21  O  2  S    0.000000  -0.000059   0.278595   0.317770  -0.179448
   22  O  2  S    0.000000   0.000061   0.350151   0.405279  -0.257319
   23  O  2  X    0.000000  -0.000025   0.054122   0.043939   0.068721
   24  O  2  Y    0.000004   0.000000   0.000000   0.000000   0.000000
   25  O  2  Z    0.000000   0.000025  -0.030614  -0.027635  -0.039848
   26  O  2  X    0.000000   0.000041   0.029305   0.026018   0.032522
   27  O  2  Y   -0.000043   0.000000   0.000000   0.000000   0.000000
   28  O  2  Z    0.000000  -0.000090  -0.017685  -0.016725  -0.015988
   29  O  2 XX    0.000000   0.000013   0.006415   0.004997   0.003365
   30  O  2 YY    0.000000  -0.000029  -0.003132  -0.001943  -0.003939
   31  O  2 ZZ    0.000000   0.000016  -0.003283  -0.003054   0.000574
   32  O  2 XY   -0.000026   0.000000   0.000000   0.000000   0.000000
   33  O  2 XZ    0.000000  -0.000061  -0.007679  -0.006771  -0.003925
   34  O  2 YZ    0.000014   0.000000   0.000000   0.000000   0.000000
   35  O  3  S    0.000000  -0.000012  -0.138236   0.156394   0.085279
   36  O  3  S    0.000000  -0.000059   0.278595  -0.317770  -0.179448
   37  O  3  S    0.000000   0.000061   0.350151  -0.405279  -0.257319
   38  O  3  X    0.000000   0.000025  -0.054122   0.043939  -0.068721
   39  O  3  Y    0.000004   0.000000   0.000000   0.000000   0.000000
   40  O  3  Z    0.000000   0.000025  -0.030614   0.027635  -0.039848
   41  O  3  X    0.000000  -0.000041  -0.029305   0.026018  -0.032522
   42  O  3  Y   -0.000043   0.000000   0.000000   0.000000   0.000000
   43  O  3  Z    0.000000  -0.000090  -0.017685   0.016725  -0.015988
   44  O  3 XX    0.000000   0.000013   0.006415  -0.004997   0.003365
   45  O  3 YY    0.000000  -0.000029  -0.003132   0.001943  -0.003939
   46  O  3 ZZ    0.000000   0.000016  -0.003283   0.003054   0.000574
   47  O  3 XY    0.000026   0.000000   0.000000   0.000000   0.000000
   48  O  3 XZ    0.000000   0.000061   0.007679  -0.006771   0.003925
   49  O  3 YZ    0.000014   0.000000   0.000000   0.000000   0.000000

                     11         12         13         14         15
                   -0.4191    -0.3846    -0.3706    -0.3028    -0.2879
                     B1         A1         B2         A2         B1  
    1  S  1  S    0.000000  -0.011077   0.000000   0.000000   0.000000
    2  S  1  S    0.000000   0.044653   0.000000   0.000000   0.000000
    3  S  1  S    0.000000  -0.053972   0.000000   0.000000   0.000000
    4  S  1  S    0.000000  -0.177881   0.000000   0.000000   0.000000
    5  S  1  X   -0.188647   0.000000   0.000000   0.000000  -0.020904
    6  S  1  Y    0.000000   0.000000  -0.216638   0.000000   0.000000
    7  S  1  Z    0.000000  -0.214005   0.000000   0.000000   0.000000
    8  S  1  X    0.444754   0.000000   0.000000   0.000000   0.043872
    9  S  1  Y    0.000000   0.000000   0.512085   0.000000   0.000000
   10  S  1  Z    0.000000   0.504826   0.000000   0.000000   0.000000
   11  S  1  X    0.179753   0.000000   0.000000   0.000000   0.113675
   12  S  1  Y    0.000000   0.000000   0.351667   0.000000   0.000000
   13  S  1  Z    0.000000   0.296499   0.000000   0.000000   0.000000
   14  S  1 XX    0.000000   0.006010   0.000000   0.000000   0.000000
   15  S  1 YY    0.000000  -0.020348   0.000000   0.000000   0.000000
   16  S  1 ZZ    0.000000   0.014338   0.000000   0.000000   0.000000
   17  S  1 XY    0.000000   0.000000   0.000000  -0.059746   0.000000
   18  S  1 XZ    0.033687   0.000000   0.000000   0.000000  -0.054086
   19  S  1 YZ    0.000000   0.000000   0.020823   0.000000   0.000000
   20  O  2  S   -0.045022   0.021819   0.000000   0.000000  -0.002863
   21  O  2  S    0.097254  -0.046588   0.000000   0.000000   0.000662
   22  O  2  S    0.163847  -0.085898   0.000000   0.000000   0.039545
   23  O  2  X   -0.277890   0.291355   0.000000   0.000000   0.322820
   24  O  2  Y    0.000000   0.000000   0.274520   0.478233   0.000000
   25  O  2  Z    0.203944   0.022006   0.000000   0.000000   0.351257
   26  O  2  X   -0.172266   0.188130   0.000000   0.000000   0.233624
   27  O  2  Y    0.000000   0.000000   0.173595   0.336102   0.000000
   28  O  2  Z    0.129167   0.012911   0.000000   0.000000   0.235024
   29  O  2 XX   -0.006065   0.012099   0.000000   0.000000   0.008953
   30  O  2 YY    0.007533  -0.004988   0.000000   0.000000  -0.000732
   31  O  2 ZZ   -0.001468  -0.007111   0.000000   0.000000  -0.008221
   32  O  2 XY    0.000000   0.000000   0.010245   0.009051   0.000000
   33  O  2 XZ    0.011943  -0.002511   0.000000   0.000000   0.002626
   34  O  2 YZ    0.000000   0.000000  -0.006003  -0.005903   0.000000
   35  O  3  S    0.045022   0.021819   0.000000   0.000000   0.002863
   36  O  3  S   -0.097254  -0.046588   0.000000   0.000000  -0.000662
   37  O  3  S   -0.163847  -0.085898   0.000000   0.000000  -0.039545
   38  O  3  X   -0.277890  -0.291355   0.000000   0.000000   0.322820
   39  O  3  Y    0.000000   0.000000   0.274520  -0.478233   0.000000
   40  O  3  Z   -0.203944   0.022006   0.000000   0.000000  -0.351257
   41  O  3  X   -0.172266  -0.188130   0.000000   0.000000   0.233624
   42  O  3  Y    0.000000   0.000000   0.173595  -0.336102   0.000000
   43  O  3  Z   -0.129167   0.012911   0.000000   0.000000  -0.235024
   44  O  3 XX    0.006065   0.012099   0.000000   0.000000  -0.008953
   45  O  3 YY   -0.007533  -0.004988   0.000000   0.000000   0.000732
   46  O  3 ZZ    0.001468  -0.007111   0.000000   0.000000   0.008221
   47  O  3 XY    0.000000   0.000000  -0.010245   0.009051   0.000000
   48  O  3 XZ    0.011943   0.002511   0.000000   0.000000   0.002626
   49  O  3 YZ    0.000000   0.000000  -0.006003   0.005903   0.000000

                     16         17         18         19         20
                   -0.2869    -0.2479    -0.1749    -0.1206     0.3196
                     A1         B2         A1         B1         B1  
    1  S  1  S    0.013420   0.000000   0.024290   0.000000   0.000000
    2  S  1  S   -0.050603   0.000000  -0.062404   0.000000   0.000000
    3  S  1  S    0.071807   0.000000   0.171699   0.000000   0.000000
    4  S  1  S    0.211516   0.000000   0.263230   0.000000   0.000000
    5  S  1  X    0.000000   0.000000   0.000000  -0.226968   0.258470
    6  S  1  Y    0.000000  -0.190200   0.000000   0.000000   0.000000
    7  S  1  Z    0.031279   0.000000  -0.194717   0.000000   0.000000
    8  S  1  X    0.000000   0.000000   0.000000   0.574214  -1.013150
    9  S  1  Y    0.000000   0.471082   0.000000   0.000000   0.000000
   10  S  1  Z   -0.079512   0.000000   0.490333   0.000000   0.000000
   11  S  1  X    0.000000   0.000000   0.000000   0.631979   1.442664
   12  S  1  Y    0.000000   0.329424   0.000000   0.000000   0.000000
   13  S  1  Z    0.011971   0.000000   0.444789   0.000000   0.000000
   14  S  1 XX   -0.082096   0.000000  -0.060711   0.000000   0.000000
   15  S  1 YY    0.030113   0.000000   0.068541   0.000000   0.000000
   16  S  1 ZZ    0.051983   0.000000  -0.007829   0.000000   0.000000
   17  S  1 XY    0.000000   0.000000   0.000000   0.000000   0.000000
   18  S  1 XZ    0.000000   0.000000   0.000000  -0.113803  -0.233233
   19  S  1 YZ    0.000000  -0.028913   0.000000   0.000000   0.000000
   20  O  2  S   -0.001478   0.000000   0.023284  -0.034338  -0.015849
   21  O  2  S    0.008668   0.000000  -0.046353   0.062760  -0.030284
   22  O  2  S   -0.019690   0.000000  -0.148124   0.252861   0.427683
   23  O  2  X   -0.013684   0.000000  -0.404622   0.219807  -0.220204
   24  O  2  Y    0.000000  -0.406031   0.000000   0.000000   0.000000
   25  O  2  Z    0.472425   0.000000  -0.003033  -0.289866   0.004715
   26  O  2  X   -0.017045   0.000000  -0.321267   0.212018   0.195252
   27  O  2  Y    0.000000  -0.292513   0.000000   0.000000   0.000000
   28  O  2  Z    0.339279   0.000000   0.004125  -0.241062  -0.149767
   29  O  2 XX    0.003122   0.000000   0.002383   0.002519   0.034526
   30  O  2 YY    0.003274   0.000000   0.000451   0.001229  -0.022361
   31  O  2 ZZ   -0.006396   0.000000  -0.002834  -0.003748  -0.012166
   32  O  2 XY    0.000000  -0.001123   0.000000   0.000000   0.000000
   33  O  2 XZ    0.008881   0.000000   0.002443   0.002797  -0.031285
   34  O  2 YZ    0.000000   0.000768   0.000000   0.000000   0.000000
   35  O  3  S   -0.001478   0.000000   0.023284   0.034338   0.015849
   36  O  3  S    0.008668   0.000000  -0.046353  -0.062760   0.030284
   37  O  3  S   -0.019690   0.000000  -0.148124  -0.252861  -0.427683
   38  O  3  X    0.013684   0.000000   0.404622   0.219807  -0.220204
   39  O  3  Y    0.000000  -0.406031   0.000000   0.000000   0.000000
   40  O  3  Z    0.472425   0.000000  -0.003033   0.289866  -0.004715
   41  O  3  X    0.017045   0.000000   0.321267   0.212018   0.195252
   42  O  3  Y    0.000000  -0.292513   0.000000   0.000000   0.000000
   43  O  3  Z    0.339279   0.000000   0.004125   0.241062   0.149767
   44  O  3 XX    0.003122   0.000000   0.002383  -0.002519  -0.034526
   45  O  3 YY    0.003274   0.000000   0.000451  -0.001229   0.022361
   46  O  3 ZZ   -0.006396   0.000000  -0.002834   0.003748   0.012166
   47  O  3 XY    0.000000   0.001123   0.000000   0.000000   0.000000
   48  O  3 XZ   -0.008881   0.000000  -0.002443   0.002797  -0.031285
   49  O  3 YZ    0.000000   0.000768   0.000000   0.000000   0.000000

                     21         22         23         24         25
                    0.3578     0.3673     0.4017     0.4629     0.4796
                     A1         B2         A1         A2         A1  
    1  S  1  S    0.009393   0.000000  -0.101685   0.000000   0.017492
    2  S  1  S   -0.016830   0.000000  -0.367954   0.000000   0.067770
    3  S  1  S    0.080517   0.000000  -1.573096   0.000000   0.276660
    4  S  1  S    0.111294   0.000000   1.856006   0.000000  -0.342977
    5  S  1  X    0.000000   0.000000   0.000000   0.000000   0.000000
    6  S  1  Y    0.000000   0.297549   0.000000   0.000000   0.000000
    7  S  1  Z    0.284200   0.000000  -0.017961   0.000000   0.027392
    8  S  1  X    0.000000   0.000000   0.000000   0.000000   0.000000
    9  S  1  Y    0.000000  -1.146968   0.000000   0.000000   0.000000
   10  S  1  Z   -1.102045   0.000000   0.057152   0.000000  -0.093775
   11  S  1  X    0.000000   0.000000   0.000000   0.000000   0.000000
   12  S  1  Y    0.000000   1.210609   0.000000   0.000000   0.000000
   13  S  1  Z    1.295527   0.000000   0.088356   0.000000  -0.004457
   14  S  1 XX   -0.049411   0.000000  -0.439554   0.000000  -0.321394
   15  S  1 YY    0.156747   0.000000   0.308140   0.000000  -0.571173
   16  S  1 ZZ   -0.107336   0.000000   0.131414   0.000000   0.892567
   17  S  1 XY    0.000000   0.000000   0.000000   0.875588   0.000000
   18  S  1 XZ    0.000000   0.000000   0.000000   0.000000   0.000000
   19  S  1 YZ    0.000000  -0.111145   0.000000   0.000000   0.000000
   20  O  2  S    0.010086   0.000000   0.014060   0.000000  -0.006300
   21  O  2  S    0.008576   0.000000  -0.027861   0.000000   0.026746
   22  O  2  S   -0.231145   0.000000  -0.185427   0.000000   0.028542
   23  O  2  X    0.043576   0.000000   0.012173   0.000000  -0.118011
   24  O  2  Y    0.000000  -0.099111   0.000000   0.299464   0.000000
   25  O  2  Z   -0.135208   0.000000  -0.141196   0.000000  -0.216649
   26  O  2  X   -0.167055   0.000000  -0.129403   0.000000   0.128809
   27  O  2  Y    0.000000  -0.069020   0.000000  -0.205093   0.000000
   28  O  2  Z    0.014549   0.000000   0.138935   0.000000   0.126090
   29  O  2 XX   -0.016620   0.000000  -0.013834   0.000000   0.029212
   30  O  2 YY    0.013865   0.000000   0.023271   0.000000  -0.007715
   31  O  2 ZZ    0.002755   0.000000  -0.009437   0.000000  -0.021497
   32  O  2 XY    0.000000  -0.003897   0.000000  -0.036812   0.000000
   33  O  2 XZ    0.017263   0.000000   0.040247   0.000000   0.019140
   34  O  2 YZ    0.000000   0.001154   0.000000   0.026748   0.000000
   35  O  3  S    0.010086   0.000000   0.014060   0.000000  -0.006300
   36  O  3  S    0.008576   0.000000  -0.027861   0.000000   0.026746
   37  O  3  S   -0.231145   0.000000  -0.185427   0.000000   0.028542
   38  O  3  X   -0.043576   0.000000  -0.012173   0.000000   0.118011
   39  O  3  Y    0.000000  -0.099111   0.000000  -0.299464   0.000000
   40  O  3  Z   -0.135208   0.000000  -0.141196   0.000000  -0.216649
   41  O  3  X    0.167055   0.000000   0.129403   0.000000  -0.128809
   42  O  3  Y    0.000000  -0.069020   0.000000   0.205093   0.000000
   43  O  3  Z    0.014549   0.000000   0.138935   0.000000   0.126090
   44  O  3 XX   -0.016620   0.000000  -0.013834   0.000000   0.029212
   45  O  3 YY    0.013865   0.000000   0.023271   0.000000  -0.007715
   46  O  3 ZZ    0.002755   0.000000  -0.009437   0.000000  -0.021497
   47  O  3 XY    0.000000   0.003897   0.000000  -0.036812   0.000000
   48  O  3 XZ   -0.017263   0.000000  -0.040247   0.000000  -0.019140
   49  O  3 YZ    0.000000   0.001154   0.000000  -0.026748   0.000000

                     26         27         28         29         30
                    0.4871     0.6259     0.6264     0.7916     0.7928
                     B2         B1         A1         B1         A2  
    1  S  1  S    0.000000   0.000000  -0.059419   0.000000   0.000000
    2  S  1  S    0.000000   0.000000  -0.267869   0.000000   0.000000
    3  S  1  S    0.000000   0.000000  -0.990039   0.000000   0.000000
    4  S  1  S    0.000000   0.000000   1.360821   0.000000   0.000000
    5  S  1  X    0.000000   0.066809   0.000000   0.014295   0.000000
    6  S  1  Y    0.026350   0.000000   0.000000   0.000000   0.000000
    7  S  1  Z    0.000000   0.000000   0.035342   0.000000   0.000000
    8  S  1  X    0.000000  -0.313033   0.000000  -0.048853   0.000000
    9  S  1  Y   -0.094611   0.000000   0.000000   0.000000   0.000000
   10  S  1  Z    0.000000   0.000000  -0.174273   0.000000   0.000000
   11  S  1  X    0.000000   0.814620   0.000000  -0.239002   0.000000
   12  S  1  Y    0.042295   0.000000   0.000000   0.000000   0.000000
   13  S  1  Z    0.000000   0.000000   0.483295   0.000000   0.000000
   14  S  1 XX    0.000000   0.000000   0.735846   0.000000   0.000000
   15  S  1 YY    0.000000   0.000000  -0.726046   0.000000   0.000000
   16  S  1 ZZ    0.000000   0.000000  -0.009799   0.000000   0.000000
   17  S  1 XY    0.000000   0.000000   0.000000   0.000000   0.497694
   18  S  1 XZ    0.000000   0.926376   0.000000   0.242083   0.000000
   19  S  1 YZ    0.942181   0.000000   0.000000   0.000000   0.000000
   20  O  2  S    0.000000  -0.048721   0.049061   0.005760   0.000000
   21  O  2  S    0.000000   0.273465  -0.285214  -0.057930   0.000000
   22  O  2  S    0.000000   0.121806  -0.091250  -0.010346   0.000000
   23  O  2  X    0.000000   0.096186  -0.027423  -0.159938   0.000000
   24  O  2  Y   -0.202674   0.000000   0.000000   0.000000  -0.571643
   25  O  2  Z    0.000000   0.076563   0.102501  -0.602839   0.000000
   26  O  2  X    0.000000   0.199527  -0.308144   0.193755   0.000000
   27  O  2  Y    0.144580   0.000000   0.000000   0.000000   0.719827
   28  O  2  Z    0.000000  -0.273330   0.057202   0.744979   0.000000
   29  O  2 XX    0.000000  -0.037134  -0.003516  -0.019556   0.000000
   30  O  2 YY    0.000000   0.011950  -0.013203   0.005237   0.000000
   31  O  2 ZZ    0.000000   0.025184   0.016719   0.014319   0.000000
   32  O  2 XY    0.028683   0.000000   0.000000   0.000000  -0.030840
   33  O  2 XZ    0.000000   0.012374  -0.016884   0.000010   0.000000
   34  O  2 YZ   -0.005922   0.000000   0.000000   0.000000   0.021295
   35  O  3  S    0.000000   0.048721   0.049061  -0.005760   0.000000
   36  O  3  S    0.000000  -0.273465  -0.285214   0.057930   0.000000
   37  O  3  S    0.000000  -0.121806  -0.091250   0.010346   0.000000
   38  O  3  X    0.000000   0.096186   0.027423  -0.159938   0.000000
   39  O  3  Y   -0.202674   0.000000   0.000000   0.000000   0.571643
   40  O  3  Z    0.000000  -0.076563   0.102501   0.602839   0.000000
   41  O  3  X    0.000000   0.199527   0.308144   0.193755   0.000000
   42  O  3  Y    0.144580   0.000000   0.000000   0.000000  -0.719827
   43  O  3  Z    0.000000   0.273330   0.057202  -0.744979   0.000000
   44  O  3 XX    0.000000   0.037134  -0.003516   0.019556   0.000000
   45  O  3 YY    0.000000  -0.011950  -0.013203  -0.005237   0.000000
   46  O  3 ZZ    0.000000  -0.025184   0.016719  -0.014319   0.000000
   47  O  3 XY   -0.028683   0.000000   0.000000   0.000000  -0.030840
   48  O  3 XZ    0.000000   0.012374   0.016884   0.000010   0.000000
   49  O  3 YZ   -0.005922   0.000000   0.000000   0.000000  -0.021295

                     31         32         33         34         35
                    0.8037     0.8159     0.8317     0.8333     1.5186
                     A1         B2         B1         A1         B1  
    1  S  1  S   -0.017676   0.000000   0.000000   0.012039   0.000000
    2  S  1  S    0.000682   0.000000   0.000000   0.016845   0.000000
    3  S  1  S   -0.201971   0.000000   0.000000   0.159164   0.000000
    4  S  1  S   -0.267952   0.000000   0.000000   0.072943   0.000000
    5  S  1  X    0.000000   0.000000  -0.108637   0.000000  -0.016562
    6  S  1  Y    0.000000  -0.034374   0.000000   0.000000   0.000000
    7  S  1  Z    0.040651   0.000000   0.000000  -0.055169   0.000000
    8  S  1  X    0.000000   0.000000   0.516454   0.000000   0.014483
    9  S  1  Y    0.000000   0.179452   0.000000   0.000000   0.000000
   10  S  1  Z   -0.178893   0.000000   0.000000   0.274585   0.000000
   11  S  1  X    0.000000   0.000000  -0.183266   0.000000   0.985649
   12  S  1  Y    0.000000  -0.505005   0.000000   0.000000   0.000000
   13  S  1  Z   -0.195229   0.000000   0.000000  -0.397710   0.000000
   14  S  1 XX    0.138089   0.000000   0.000000   0.365774   0.000000
   15  S  1 YY    0.069447   0.000000   0.000000   0.013012   0.000000
   16  S  1 ZZ   -0.207536   0.000000   0.000000  -0.378786   0.000000
   17  S  1 XY    0.000000   0.000000   0.000000   0.000000   0.000000
   18  S  1 XZ    0.000000   0.000000   0.073072   0.000000   0.422788
   19  S  1 YZ    0.000000  -0.325089   0.000000   0.000000   0.000000
   20  O  2  S   -0.020471   0.000000  -0.015457   0.007716   0.016915
   21  O  2  S    0.202776   0.000000   0.178894  -0.075579  -1.125518
   22  O  2  S   -0.089661   0.000000  -0.166838   0.088934   1.510491
   23  O  2  X   -0.606059   0.000000  -0.582421   0.002419  -0.079641
   24  O  2  Y    0.000000  -0.601321   0.000000   0.000000   0.000000
   25  O  2  Z    0.020810   0.000000   0.159803  -0.573525   0.108347
   26  O  2  X    0.835930   0.000000   0.780737  -0.018339   0.381440
   27  O  2  Y    0.000000   0.811362   0.000000   0.000000   0.000000
   28  O  2  Z   -0.040185   0.000000  -0.222735   0.790529  -0.376556
   29  O  2 XX   -0.032661   0.000000  -0.031252  -0.004857  -0.096001
   30  O  2 YY    0.012008   0.000000   0.025445  -0.019461   0.088741
   31  O  2 ZZ    0.020653   0.000000   0.005807   0.024317   0.007260
   32  O  2 XY    0.000000  -0.028272   0.000000   0.000000   0.000000
   33  O  2 XZ    0.004840   0.000000   0.034150  -0.051569   0.148398
   34  O  2 YZ    0.000000   0.011399   0.000000   0.000000   0.000000
   35  O  3  S   -0.020471   0.000000   0.015457   0.007716  -0.016915
   36  O  3  S    0.202776   0.000000  -0.178894  -0.075579   1.125518
   37  O  3  S   -0.089661   0.000000   0.166838   0.088934  -1.510491
   38  O  3  X    0.606059   0.000000  -0.582421  -0.002419  -0.079641
   39  O  3  Y    0.000000  -0.601321   0.000000   0.000000   0.000000
   40  O  3  Z    0.020810   0.000000  -0.159803  -0.573525  -0.108347
   41  O  3  X   -0.835930   0.000000   0.780737   0.018339   0.381440
   42  O  3  Y    0.000000   0.811362   0.000000   0.000000   0.000000
   43  O  3  Z   -0.040185   0.000000   0.222735   0.790529   0.376556
   44  O  3 XX   -0.032661   0.000000   0.031252  -0.004857   0.096001
   45  O  3 YY    0.012008   0.000000  -0.025445  -0.019461  -0.088741
   46  O  3 ZZ    0.020653   0.000000  -0.005807   0.024317  -0.007260
   47  O  3 XY    0.000000   0.028272   0.000000   0.000000   0.000000
   48  O  3 XZ   -0.004840   0.000000   0.034150   0.051569   0.148398
   49  O  3 YZ    0.000000   0.011399   0.000000   0.000000   0.000000

                     36         37         38         39         40
                    1.5571     2.0874     2.0886     2.0919     2.0929
                     A1         B1         A2         B2         A1  
    1  S  1  S   -0.029406   0.000000   0.000000   0.000000  -0.000567
    2  S  1  S   -0.277557   0.000000   0.000000   0.000000  -0.004395
    3  S  1  S   -0.669197   0.000000   0.000000   0.000000  -0.011744
    4  S  1  S    1.516506   0.000000   0.000000   0.000000   0.023524
    5  S  1  X    0.000000   0.002979   0.000000   0.000000   0.000000
    6  S  1  Y    0.000000   0.000000   0.000000  -0.001053   0.000000
    7  S  1  Z   -0.008462   0.000000   0.000000   0.000000   0.000252
    8  S  1  X    0.000000   0.006280   0.000000   0.000000   0.000000
    9  S  1  Y    0.000000   0.000000   0.000000  -0.004798   0.000000
   10  S  1  Z    0.003401   0.000000   0.000000   0.000000  -0.001397
   11  S  1  X    0.000000  -0.121774   0.000000   0.000000   0.000000
   12  S  1  Y    0.000000   0.000000   0.000000   0.036165   0.000000
   13  S  1  Z    0.620929   0.000000   0.000000   0.000000   0.009792
   14  S  1 XX    0.330920   0.000000   0.000000   0.000000   0.011276
   15  S  1 YY   -0.298993   0.000000   0.000000   0.000000  -0.028443
   16  S  1 ZZ   -0.031926   0.000000   0.000000   0.000000   0.017167
   17  S  1 XY    0.000000   0.000000   0.066875   0.000000   0.000000
   18  S  1 XZ    0.000000   0.037603   0.000000   0.000000   0.000000
   19  S  1 YZ    0.000000   0.000000   0.000000   0.004032   0.000000
   20  O  2  S   -0.014610  -0.000087   0.000000   0.000000   0.000775
   21  O  2  S    1.097722   0.057729   0.000000   0.000000   0.010007
   22  O  2  S   -1.462397  -0.096406   0.000000   0.000000  -0.019700
   23  O  2  X    0.147841  -0.001392   0.000000   0.000000   0.000084
   24  O  2  Y    0.000000   0.000000  -0.009734   0.008262   0.000000
   25  O  2  Z   -0.021264  -0.021463   0.000000   0.000000  -0.000008
   26  O  2  X   -0.576205  -0.015494   0.000000   0.000000  -0.007895
   27  O  2  Y    0.000000   0.000000   0.013936  -0.014370   0.000000
   28  O  2  Z    0.162914   0.043904   0.000000   0.000000   0.002181
   29  O  2 XX    0.159843   0.506293   0.000000   0.000000  -0.144922
   30  O  2 YY   -0.110075  -0.390984   0.000000   0.000000   0.608888
   31  O  2 ZZ   -0.049768  -0.115308   0.000000   0.000000  -0.463966
   32  O  2 XY    0.000000   0.000000   0.593247   0.180972   0.000000
   33  O  2 XZ   -0.126839   0.468227   0.000000   0.000000  -0.308539
   34  O  2 YZ    0.000000   0.000000   0.384965   0.683787   0.000000
   35  O  3  S   -0.014610   0.000087   0.000000   0.000000   0.000775
   36  O  3  S    1.097722  -0.057729   0.000000   0.000000   0.010007
   37  O  3  S   -1.462397   0.096406   0.000000   0.000000  -0.019700
   38  O  3  X   -0.147841  -0.001392   0.000000   0.000000  -0.000084
   39  O  3  Y    0.000000   0.000000   0.009734   0.008262   0.000000
   40  O  3  Z   -0.021264   0.021463   0.000000   0.000000  -0.000008
   41  O  3  X    0.576205  -0.015494   0.000000   0.000000   0.007895
   42  O  3  Y    0.000000   0.000000  -0.013936  -0.014370   0.000000
   43  O  3  Z    0.162914  -0.043904   0.000000   0.000000   0.002181
   44  O  3 XX    0.159843  -0.506293   0.000000   0.000000  -0.144922
   45  O  3 YY   -0.110075   0.390984   0.000000   0.000000   0.608888
   46  O  3 ZZ   -0.049768   0.115308   0.000000   0.000000  -0.463966
   47  O  3 XY    0.000000   0.000000   0.593247  -0.180972   0.000000
   48  O  3 XZ    0.126839   0.468227   0.000000   0.000000   0.308539
   49  O  3 YZ    0.000000   0.000000  -0.384965   0.683787   0.000000

                     41         42         43         44         45
                    2.0939     2.0994     2.1039     2.1426     2.3170
                     B1         B2         A2         A1         A1  
    1  S  1  S    0.000000   0.000000   0.000000   0.003693  -0.001323
    2  S  1  S    0.000000   0.000000   0.000000   0.043270  -0.161180
    3  S  1  S    0.000000   0.000000   0.000000   0.095186  -0.221019
    4  S  1  S    0.000000   0.000000   0.000000  -0.230467   0.846090
    5  S  1  X   -0.009892   0.000000   0.000000   0.000000   0.000000
    6  S  1  Y    0.000000   0.003233   0.000000   0.000000   0.000000
    7  S  1  Z    0.000000   0.000000   0.000000   0.006302  -0.057418
    8  S  1  X    0.020729   0.000000   0.000000   0.000000   0.000000
    9  S  1  Y    0.000000   0.021462   0.000000   0.000000   0.000000
   10  S  1  Z    0.000000   0.000000   0.000000   0.013448   0.190373
   11  S  1  X    0.114292   0.000000   0.000000   0.000000   0.000000
   12  S  1  Y    0.000000  -0.144129   0.000000   0.000000   0.000000
   13  S  1  Z    0.000000   0.000000   0.000000  -0.226928   0.249968
   14  S  1 XX    0.000000   0.000000   0.000000   0.101850   0.393522
   15  S  1 YY    0.000000   0.000000   0.000000   0.054404  -0.317119
   16  S  1 ZZ    0.000000   0.000000   0.000000  -0.156254  -0.076403
   17  S  1 XY    0.000000   0.000000  -0.163271   0.000000   0.000000
   18  S  1 XZ   -0.018263   0.000000   0.000000   0.000000   0.000000
   19  S  1 YZ    0.000000  -0.112308   0.000000   0.000000   0.000000
   20  O  2  S   -0.000664   0.000000   0.000000  -0.000221   0.004529
   21  O  2  S   -0.067798   0.000000   0.000000  -0.120502   0.436500
   22  O  2  S    0.111751   0.000000   0.000000   0.194038  -0.662293
   23  O  2  X   -0.006952   0.000000   0.000000  -0.043415   0.103028
   24  O  2  Y    0.000000  -0.035467   0.021341   0.000000   0.000000
   25  O  2  Z    0.021477   0.000000   0.000000  -0.027208  -0.050119
   26  O  2  X    0.033185   0.000000   0.000000   0.126767  -0.382778
   27  O  2  Y    0.000000   0.067996  -0.032018   0.000000   0.000000
   28  O  2  Z   -0.046767   0.000000   0.000000   0.037739   0.184886
   29  O  2 XX   -0.189482   0.000000   0.000000   0.549411  -0.410236
   30  O  2 YY   -0.494935   0.000000   0.000000  -0.017927   0.353541
   31  O  2 ZZ    0.684417   0.000000   0.000000  -0.531484   0.056695
   32  O  2 XY    0.000000   0.686031  -0.385355   0.000000   0.000000
   33  O  2 XZ   -0.027805   0.000000   0.000000   0.335714   0.541657
   34  O  2 YZ    0.000000  -0.183393   0.593199   0.000000   0.000000
   35  O  3  S    0.000664   0.000000   0.000000  -0.000221   0.004529
   36  O  3  S    0.067798   0.000000   0.000000  -0.120502   0.436500
   37  O  3  S   -0.111751   0.000000   0.000000   0.194038  -0.662293
   38  O  3  X   -0.006952   0.000000   0.000000   0.043415  -0.103028
   39  O  3  Y    0.000000  -0.035467  -0.021341   0.000000   0.000000
   40  O  3  Z   -0.021477   0.000000   0.000000  -0.027208  -0.050119
   41  O  3  X    0.033185   0.000000   0.000000  -0.126767   0.382778
   42  O  3  Y    0.000000   0.067996   0.032018   0.000000   0.000000
   43  O  3  Z    0.046767   0.000000   0.000000   0.037739   0.184886
   44  O  3 XX    0.189482   0.000000   0.000000   0.549411  -0.410236
   45  O  3 YY    0.494935   0.000000   0.000000  -0.017927   0.353541
   46  O  3 ZZ   -0.684417   0.000000   0.000000  -0.531484   0.056695
   47  O  3 XY    0.000000  -0.686031  -0.385355   0.000000   0.000000
   48  O  3 XZ   -0.027805   0.000000   0.000000  -0.335714  -0.541657
   49  O  3 YZ    0.000000  -0.183393  -0.593199   0.000000   0.000000

                     46
                    2.3402
                     B1  
    1  S  1  S    0.000000
    2  S  1  S    0.000000
    3  S  1  S    0.000000
    4  S  1  S    0.000000
    5  S  1  X   -0.096452
    6  S  1  Y    0.000000
    7  S  1  Z    0.000000
    8  S  1  X    0.320862
    9  S  1  Y    0.000000
   10  S  1  Z    0.000000
   11  S  1  X    0.344861
   12  S  1  Y    0.000000
   13  S  1  Z    0.000000
   14  S  1 XX    0.000000
   15  S  1 YY    0.000000
   16  S  1 ZZ    0.000000
   17  S  1 XY    0.000000
   18  S  1 XZ    0.438017
   19  S  1 YZ    0.000000
   20  O  2  S   -0.004523
   21  O  2  S   -0.377791
   22  O  2  S    0.574553
   23  O  2  X   -0.079853
   24  O  2  Y    0.000000
   25  O  2  Z    0.052507
   26  O  2  X    0.300415
   27  O  2  Y    0.000000
   28  O  2  Z   -0.199319
   29  O  2 XX    0.460745
   30  O  2 YY   -0.319498
   31  O  2 ZZ   -0.141247
   32  O  2 XY    0.000000
   33  O  2 XZ   -0.526757
   34  O  2 YZ    0.000000
   35  O  3  S    0.004523
   36  O  3  S    0.377791
   37  O  3  S   -0.574553
   38  O  3  X   -0.079853
   39  O  3  Y    0.000000
   40  O  3  Z   -0.052507
   41  O  3  X    0.300415
   42  O  3  Y    0.000000
   43  O  3  Z    0.199319
   44  O  3 XX   -0.460745
   45  O  3 YY    0.319498
   46  O  3 ZZ    0.141247
   47  O  3 XY    0.000000
   48  O  3 XZ   -0.526757
   49  O  3 YZ    0.000000
 ...... END OF RHF CALCULATION ......
 STEP CPU TIME =     4.15 TOTAL CPU TIME =        4.3 (    0.1 MIN)
 TOTAL WALL CLOCK TIME=        4.3 SECONDS, CPU UTILIZATION IS 100.00%

     ---------------------------------------------------------------------
     PROPERTIES FOR THE PBE      DFT FUNCTIONAL (RHF  TYPE) DENSITY MATRIX
     ---------------------------------------------------------------------

          -----------------
          ENERGY COMPONENTS
          -----------------

         WAVEFUNCTION NORMALIZATION =       1.0000000000

                ONE ELECTRON ENERGY =    -917.8139114642
                TWO ELECTRON ENERGY =     288.1045088193
           NUCLEAR REPULSION ENERGY =      81.5908926066
                                      ------------------
                       TOTAL ENERGY =    -548.1185100384

 ELECTRON-ELECTRON POTENTIAL ENERGY =     288.1045088193
  NUCLEUS-ELECTRON POTENTIAL ENERGY =   -1464.3786444020
   NUCLEUS-NUCLEUS POTENTIAL ENERGY =      81.5908926066
                                      ------------------
             TOTAL POTENTIAL ENERGY =   -1094.6832429762
               TOTAL KINETIC ENERGY =     546.5647329378
                 VIRIAL RATIO (V/T) =       2.0028428053

          ---------------------------------------
          MULLIKEN AND LOWDIN POPULATION ANALYSES
          ---------------------------------------

     ATOMIC MULLIKEN POPULATION IN EACH MOLECULAR ORBITAL

                      1          2          3          4          5

                  2.000000   2.000000   2.000000   2.000000   2.000000

    1             1.999998   0.000483   0.000553   1.999922   2.000005
    2             0.000001   0.999758   0.999724   0.000039  -0.000002
    3             0.000001   0.999758   0.999724   0.000039  -0.000002

                      6          7          8          9         10

                  2.000000   2.000000   2.000000   2.000000   2.000000

    1             2.000002   1.999993   0.455525   0.115777   1.430379
    2            -0.000001   0.000004   0.772237   0.942112   0.284811
    3            -0.000001   0.000004   0.772237   0.942112   0.284811

                     11         12         13         14         15

                  2.000000   2.000000   2.000000   2.000000   2.000000

    1             0.714435   1.148727   1.257641   0.020256   0.059079
    2             0.642783   0.425637   0.371180   0.989872   0.970461
    3             0.642783   0.425637   0.371180   0.989872   0.970461

                     16

                  2.000000

    1             0.099872
    2             0.950064
    3             0.950064

               ----- POPULATIONS IN EACH AO -----
                             MULLIKEN      LOWDIN
              1  S  1  S      2.00021     1.99608
              2  S  1  S      2.01079     1.97514
              3  S  1  S      1.02067     0.65532
              4  S  1  S      0.89768     0.56760
              5  S  1  X      1.99606     1.95240
              6  S  1  Y      1.99639     1.95739
              7  S  1  Z      1.99652     1.95783
              8  S  1  X      0.61755     0.57755
              9  S  1  Y      0.71321     0.69547
             10  S  1  Z      0.73291     0.70718
             11  S  1  X      0.24078     0.35872
             12  S  1  Y      0.54576     0.58992
             13  S  1  Z      0.42496     0.50850
             14  S  1 XX      0.01676     0.24054
             15  S  1 YY      0.03439     0.25789
             16  S  1 ZZ      0.02026     0.25139
             17  S  1 XY      0.03547     0.02308
             18  S  1 XZ      0.00228     0.04636
             19  S  1 YZ      0.00000     0.00219
             20  O  2  S      1.99802     1.98158
             21  O  2  S      0.86323     0.67671
             22  O  2  S      1.11871     0.62607
             23  O  2  X      0.76654     0.72840
             24  O  2  Y      0.81939     0.79075
             25  O  2  Z      1.05656     1.02434
             26  O  2  X      0.50853     0.57691
             27  O  2  Y      0.54018     0.57340
             28  O  2  Z      0.67071     0.71708
             29  O  2 XX      0.00085     0.21423
             30  O  2 YY      0.00200     0.21580
             31  O  2 ZZ      0.00109     0.20925
             32  O  2 XY      0.00249     0.00135
             33  O  2 XZ      0.00039     0.00337
             34  O  2 YZ      0.00000     0.00047
             35  O  3  S      1.99802     1.98158
             36  O  3  S      0.86323     0.67671
             37  O  3  S      1.11871     0.62607
             38  O  3  X      0.76654     0.72840
             39  O  3  Y      0.81939     0.79075
             40  O  3  Z      1.05656     1.02434
             41  O  3  X      0.50853     0.57691
             42  O  3  Y      0.54018     0.57340
             43  O  3  Z      0.67071     0.71708
             44  O  3 XX      0.00085     0.21423
             45  O  3 YY      0.00200     0.21580
             46  O  3 ZZ      0.00109     0.20925
             47  O  3 XY      0.00249     0.00135
             48  O  3 XZ      0.00039     0.00337
             49  O  3 YZ      0.00000     0.00047

          ----- MULLIKEN ATOMIC OVERLAP POPULATIONS -----
          (OFF-DIAGONAL ELEMENTS NEED TO BE MULTIPLIED BY 2)

             1           2           3

    1   14.8794108
    2    0.2116174   8.1460195
    3    0.2116174  -0.0089598   8.1460195

          TOTAL MULLIKEN AND LOWDIN ATOMIC POPULATIONS
       ATOM         MULL.POP.    CHARGE          LOW.POP.     CHARGE
    1 S            15.302646    0.697354        15.320541    0.679459
    2 O             8.348677   -0.348677         8.339729   -0.339729
    3 O             8.348677   -0.348677         8.339729   -0.339729

          MULLIKEN SPHERICAL HARMONIC POPULATIONS
       ATOM           S       P       D      F      G      H      I    TOTAL
    1 S             5.93    9.26    0.11   0.00   0.00   0.00   0.00   15.30
    2 O             3.98    4.36    0.01   0.00   0.00   0.00   0.00    8.35
    3 O             3.98    4.36    0.01   0.00   0.00   0.00   0.00    8.35

          -------------------------------
          BOND ORDER AND VALENCE ANALYSIS     BOND ORDER THRESHOLD=0.050
          -------------------------------

                   BOND                       BOND                       BOND
  ATOM PAIR DIST  ORDER      ATOM PAIR DIST  ORDER      ATOM PAIR DIST  ORDER
    1   2  1.900  1.539        1   3  1.900  1.539        2   3  3.291  0.607

                       TOTAL       BONDED        FREE
      ATOM            VALENCE     VALENCE     VALENCE
    1 S                 3.078       3.078       0.000
    2 O                 2.146       2.146       0.000
    3 O                 2.146       2.146       0.000

          ---------------------
          ELECTROSTATIC MOMENTS
          ---------------------

 POINT   1           X           Y           Z (BOHR)    CHARGE
                 0.000000    0.000000    0.000000        0.00 (A.U.)
         DX          DY          DZ         /D/  (DEBYE)
     0.000000    0.000000   -2.235549    2.235549
 ...... END OF PROPERTY EVALUATION ......
 STEP CPU TIME =     0.01 TOTAL CPU TIME =        4.3 (    0.1 MIN)
 TOTAL WALL CLOCK TIME=        4.3 SECONDS, CPU UTILIZATION IS 100.00%
               580000  WORDS OF DYNAMIC MEMORY USED
 EXECUTION OF GAMESS TERMINATED NORMALLY Thu Feb 26 00:21:50 2015
 DDI: 263624 bytes (0.3 MB / 0 MWords) used by master data server.

 ----------------------------------------
 CPU timing information for all processes
 ========================================
 0: 4.311 + 0.27 = 4.339
 ----------------------------------------
 ddikick.x: exited gracefully.
----- accounting info -----
Files used on the master node dftfe.crc.nd.edu were:
-rw-r--r-- 1 pmehta1 campus   37475 Feb 26 00:21 /tmp/gamess.dat
-rw-r--r-- 1 pmehta1 campus     142 Feb 26 00:21 /tmp/gamess.F05
-rw-r--r-- 1 pmehta1 campus 1980264 Feb 26 00:21 /tmp/gamess.F08
-rw-r--r-- 1 pmehta1 campus 1220440 Feb 26 00:21 /tmp/gamess.F10
Thu Feb 26 00:21:53 EST 2015
0.246u 0.179s 0:07.78 5.2%	0+0k 0+96io 0pf+0w
