----- GAMESS execution script 'rungms' -----
This job is running on host dftfe.crc.nd.edu
under operating system Linux at Thu Feb 26 00:22:16 EST 2015
Available scratch disk space (Kbyte units) at beginning of the job is
Filesystem     1K-blocks     Used Available Use% Mounted on
/dev/sda2      147771864 22818132 117447300  17% /
GAMESS temporary binary files will be written to /tmp
GAMESS supplementary output files will be written to /tmp
Copying input file gamess.inp to your run's scratch directory...

 Distributed Data Interface kickoff program.
 Initiating 1 compute processes on 1 nodes to run the following command:
 /opt/crc/gamess/2012R1/gamess/gamess.00.x gamess 

          ******************************************************
          *         GAMESS VERSION =  1 MAY 2012 (R1)          *
          *             FROM IOWA STATE UNIVERSITY             *
          * M.W.SCHMIDT, K.K.BALDRIDGE, J.A.BOATZ, S.T.ELBERT, *
          *   M.S.GORDON, J.H.JENSEN, S.KOSEKI, N.MATSUNAGA,   *
          *          K.A.NGUYEN, S.J.SU, T.L.WINDUS,           *
          *       TOGETHER WITH M.DUPUIS, J.A.MONTGOMERY       *
          *         J.COMPUT.CHEM.  14, 1347-1363(1993)        *
          **************** 64 BIT LINUX VERSION ****************

  SINCE 1993, STUDENTS AND POSTDOCS WORKING AT IOWA STATE UNIVERSITY
  AND ALSO IN THEIR VARIOUS JOBS AFTER LEAVING ISU HAVE MADE IMPORTANT
  CONTRIBUTIONS TO THE CODE:
     IVANA ADAMOVIC, CHRISTINE AIKENS, YURI ALEXEEV, POOJA ARORA,
     ANDREY ASADCHEV, ROB BELL, PRADIPTA BANDYOPADHYAY, JONATHAN BENTZ,
     BRETT BODE, GALINA CHABAN, WEI CHEN, CHEOL HO CHOI, PAUL DAY,
     ALBERT DEFUSCO, TIM DUDLEY, DMITRI FEDOROV, GRAHAM FLETCHER,
     MARK FREITAG, KURT GLAESEMANN, DAN KEMP, GRANT MERRILL,
     NORIYUKI MINEZAWA, JONATHAN MULLIN, TAKESHI NAGATA,
     SEAN NEDD, HEATHER NETZLOFF, BOSILJKA NJEGIC, RYAN OLSON, MIKE PAK,
     JIM SHOEMAKER, LYUDMILA SLIPCHENKO, SAROM SOK, JIE SONG,
     TETSUYA TAKETSUGU, SIMON WEBB, SOOHAENG YOO, FEDERICO ZAHARIEV

  ADDITIONAL CODE HAS BEEN PROVIDED BY COLLABORATORS IN OTHER GROUPS:
     IOWA STATE UNIVERSITY:
          JOE IVANIC, LAIMUTIS BYTAUTAS, KLAUS RUEDENBERG
     UNIVERSITY OF TOKYO: KIMIHIKO HIRAO, TAKAHITO NAKAJIMA,
          TAKAO TSUNEDA, MUNEAKI KAMIYA, SUSUMU YANAGISAWA,
          KIYOSHI YAGI, MAHITO CHIBA, SEIKEN TOKURA, NAOAKI KAWAKAMI
     UNIVERSITY OF AARHUS: FRANK JENSEN
     UNIVERSITY OF IOWA: VISVALDAS KAIRYS, HUI LI
     NATIONAL INST. OF STANDARDS AND TECHNOLOGY: WALT STEVENS, DAVID GARMER
     UNIVERSITY OF PISA: BENEDETTA MENNUCCI, JACOPO TOMASI
     UNIVERSITY OF MEMPHIS: HENRY KURTZ, PRAKASHAN KORAMBATH
     UNIVERSITY OF ALBERTA: TOBY ZENG, MARIUSZ KLOBUKOWSKI
     UNIVERSITY OF NEW ENGLAND: MARK SPACKMAN
     MIE UNIVERSITY: HIROAKI UMEDA
     MICHIGAN STATE UNIVERSITY:
          KAROL KOWALSKI, MARTA WLOCH, JEFFREY GOUR, JESSE LUTZ, PIOTR PIECUCH
     UNIVERSITY OF SILESIA: MONIKA MUSIAL, STANISLAW KUCHARSKI
     FACULTES UNIVERSITAIRES NOTRE-DAME DE LA PAIX:
          OLIVIER QUINET, BENOIT CHAMPAGNE
     UNIVERSITY OF CALIFORNIA - SANTA BARBARA: BERNARD KIRTMAN
     INSTITUTE FOR MOLECULAR SCIENCE:
          KAZUYA ISHIMURA, MICHIO KATOUDA, AND SHIGERU NAGASE
     UNIVERSITY OF NOTRE DAME: DAN CHIPMAN
     KYUSHU UNIVERSITY:
          HARUYUKI NAKANO,
          FENG LONG GU, JACEK KORCHOWIEC, MARCIN MAKOWSKI, AND YURIKO AOKI,
          HIROTOSHI MORI AND EISAKU MIYOSHI
     PENNSYLVANIA STATE UNIVERSITY:
          TZVETELIN IORDANOV, CHET SWALINA, JONATHAN SKONE,
          SHARON HAMMES-SCHIFFER
     WASEDA UNIVERSITY:
          MASATO KOBAYASHI, TOMOKO AKAMA, TSUGUKI TOUMA,
          TAKESHI YOSHIKAWA, YASUHIRO IKABATA, HIROMI NAKAI
     UNIVERSITY OF NEBRASKA:
          PEIFENG SU, DEJUN SI, NANDUN THELLAMUREGE, YALI WANG, HUI LI
     UNIVERSITY OF ZURICH:
          ROBERTO PEVERATI, KIM BALDRIDGE
     N. COPERNICUS UNIVERSITY AND JACKSON STATE UNIVERSITY:
          MARIA BARYSZ

 EXECUTION OF GAMESS BEGUN Thu Feb 26 00:22:16 2015

            ECHO OF THE FIRST FEW INPUT CARDS -
 INPUT CARD> $BASIS GBASIS=PC1 $END                                                         
 INPUT CARD> $CONTRL COORD=ZMT ISPHER=1 RUNTYP=ENERGY DFTTYP=PBE $END                       
 INPUT CARD>                                                                                
 INPUT CARD> $DATA                                                                          
 INPUT CARD>Title                                                                           
 INPUT CARD>Cnv 2                                                                           
 INPUT CARD>                                                                                
 INPUT CARD>S                                                                               
 INPUT CARD>O 1 1.90                                                                        
 INPUT CARD>O 1 1.90 2 160.0                                                                
 INPUT CARD> $END                                                                           
    1000000 WORDS OF MEMORY AVAILABLE

     BASIS OPTIONS
     -------------
     GBASIS=PC1          IGAUSS=       0      POLAR=NONE    
     NDFUNC=       0     NFFUNC=       0     DIFFSP=       F
     NPFUNC=       0      DIFFS=       F     BASNAM=        


     RUN TITLE
     ---------
 Title                                                                           

 THE POINT GROUP OF THE MOLECULE IS CNV     
 THE ORDER OF THE PRINCIPAL AXIS IS     2

 YOUR FULLY SUBSTITUTED Z-MATRIX IS
 S   
 O      1   1.9000000
 O      1   1.9000000  2  160.0000

 THE MOMENTS OF INERTIA ARE (AMU-ANGSTROM**2)
 IXX=     1.741   IYY=   112.001   IZZ=   113.742

 ATOM      ATOMIC                      COORDINATES (BOHR)
           CHARGE         X                   Y                   Z
 S          16.0     0.0000000000        0.0000000000       -0.3118266110
 O           8.0    -3.5359319272        0.0000000000        0.3116535897
 O           8.0     3.5359319272        0.0000000000        0.3116535897

          INTERNUCLEAR DISTANCES (ANGS.)
          ------------------------------

                1 S          2 O          3 O     

   1 S       0.0000000    1.9000000 *  1.9000000 *
   2 O       1.9000000 *  0.0000000    3.7422695  
   3 O       1.9000000 *  3.7422695    0.0000000  

  * ... LESS THAN  3.000


     ATOMIC BASIS SET
     ----------------
 THE CONTRACTED PRIMITIVE FUNCTIONS HAVE BEEN UNNORMALIZED
 THE CONTRACTED BASIS FUNCTIONS ARE NOW NORMALIZED TO UNITY

  SHELL TYPE  PRIMITIVE        EXPONENT          CONTRACTION COEFFICIENT(S)

 S         

      1   S       1         55510.0000000    0.000587229760
      1   S       2          8326.7000000    0.004532413947
      1   S       3          1895.6000000    0.023265261648
      1   S       4           536.7700000    0.089696133027
      1   S       5           174.6700000    0.254098332277
      1   S       6            62.5780000    0.438665087637
      1   S       7            23.5730000    0.314547135094
      1   S       8             5.8908000    0.032727897102

      2   S       9          8326.7000000   -0.000019755715
      2   S      10          1895.6000000   -0.000043822381
      2   S      11           536.7700000   -0.001730264906
      2   S      12           174.6700000   -0.009381263460
      2   S      13            62.5780000   -0.064050766303
      2   S      14            23.5730000   -0.082478179196
      2   S      15             5.8908000    0.478342956889
      2   S      16             2.1852000    0.626896670208

      3   S      17          1895.6000000    0.000016227260
      3   S      18           536.7700000    0.000191135619
      3   S      19           174.6700000    0.001952069674
      3   S      20            62.5780000    0.010578701087
      3   S      21            23.5730000    0.022164934551
      3   S      22             5.8908000   -0.184968323118
      3   S      23             2.1852000   -0.480920750976
      3   S      24             0.4528200    1.243822243872

      4   S      25             0.1620200    1.000000000000

      5   P      26           395.4500000    0.004642761329
      5   P      27            92.8340000    0.036023396489
      5   P      28            29.2660000    0.149058869978
      5   P      29            10.5950000    0.360033266263
      5   P      30             4.0272000    0.455756476221
      5   P      31             1.5484000    0.206167664178

      6   P      32            92.8340000    0.000169901442
      6   P      33            29.2660000   -0.002541839934
      6   P      34            10.5950000   -0.007867614595
      6   P      35             4.0272000   -0.037231009184
      6   P      36             1.5484000    0.161417246830
      6   P      37             0.4613400    0.902230419976

      7   P      38             0.1313100    1.000000000000

      8   D      39             0.5500000    1.000000000000

 O         

     15   S      40          2306.7000000    0.005424388755
     15   S      41           347.1500000    0.040474749465
     15   S      42            78.8900000    0.180219634554
     15   S      43            21.8760000    0.462370311787
     15   S      44             6.6646000    0.454888396263

     16   S      45           347.1500000   -0.000655003786
     16   S      46            78.8900000   -0.005362052952
     16   S      47            21.8760000   -0.074902158894
     16   S      48             6.6646000   -0.181442579655
     16   S      49             1.0669000    1.102006874042

     17   S      50             0.3070000    1.000000000000

     18   P      51            17.0220000    0.068979967443
     18   P      52             3.6838000    0.351985516325
     18   P      53             0.9923400    0.724036547822

     19   P      54             0.2448700    1.000000000000

     20   D      55             1.0000000    1.000000000000

 TOTAL NUMBER OF BASIS SET SHELLS             =   20
 NUMBER OF CARTESIAN GAUSSIAN BASIS FUNCTIONS =   49
 NOTE: THIS RUN WILL RESTRICT THE MO VARIATION SPACE TO SPHERICAL HARMONICS.
 THE NUMBER OF ORBITALS KEPT IN THE VARIATIONAL SPACE WILL BE PRINTED LATER.
 NUMBER OF ELECTRONS                          =   32
 CHARGE OF MOLECULE                           =    0
 SPIN MULTIPLICITY                            =    1
 NUMBER OF OCCUPIED ORBITALS (ALPHA)          =   16
 NUMBER OF OCCUPIED ORBITALS (BETA )          =   16
 TOTAL NUMBER OF ATOMS                        =    3
 THE NUCLEAR REPULSION ENERGY IS       80.3496194560

     LEBEDEV GRID-BASED DFT OPTIONS
     ------------------------------
     DFTTYP=PBE     
     NRAD  =      96     NLEB  =     302
     NRAD0 =      24     NLEB0 =     110
     SWOFF =    5.00E-03 (PURE SCF -> DFT)
     SWITCH=    3.00E-04 (COARSE -> TIGHT GRID)
     THRESH=    0.00E+00 GTHRE=    1.00E+00

 GRIMME'S EMPIRICAL DISPERSION CORRECTION= F

     $CONTRL OPTIONS
     ---------------
 SCFTYP=RHF          RUNTYP=ENERGY       EXETYP=RUN     
 MPLEVL=       0     CITYP =NONE         CCTYP =NONE         VBTYP =NONE    
 DFTTYP=PBE          TDDFT =NONE    
 MULT  =       1     ICHARG=       0     NZVAR =       0     COORD =ZMT     
 PP    =NONE         RELWFN=NONE         LOCAL =NONE         NUMGRD=       F
 ISPHER=       1     NOSYM =       0     MAXIT =      30     UNITS =ANGS    
 PLTORB=       F     MOLPLT=       F     AIMPAC=       F     FRIEND=        
 NPRINT=       7     IREST =       0     GEOM  =INPUT   
 NORMF =       0     NORMP =       0     ITOL  =      20     ICUT  =       9
 INTTYP=BEST         GRDTYP=BEST         QMTTOL= 1.0E-06

     $SYSTEM OPTIONS
     ---------------
  REPLICATED MEMORY=     1000000 WORDS (ON EVERY NODE).
 DISTRIBUTED MEMDDI=           0 MILLION WORDS IN AGGREGATE,
 MEMDDI DISTRIBUTED OVER   1 PROCESSORS IS           0 WORDS/PROCESSOR.
 TOTAL MEMORY REQUESTED ON EACH PROCESSOR=     1000000 WORDS.
 TIMLIM=      525600.00 MINUTES, OR     365.0 DAYS.
 PARALL= F  BALTYP=  DLB     KDIAG=    0  COREFL= F
 MXSEQ2=     300 MXSEQ3=     150

          ----------------
          PROPERTIES INPUT
          ----------------

     MOMENTS            FIELD           POTENTIAL          DENSITY
 IEMOM =       1   IEFLD =       0   IEPOT =       0   IEDEN =       0
 WHERE =COMASS     WHERE =NUCLEI     WHERE =NUCLEI     WHERE =NUCLEI  
 OUTPUT=BOTH       OUTPUT=BOTH       OUTPUT=BOTH       OUTPUT=BOTH    
 IEMINT=       0   IEFINT=       0                     IEDINT=       0
                                                       MORB  =       0
          EXTRAPOLATION IN EFFECT
          DIIS IN EFFECT
 ORBITAL PRINTING OPTION: NPREO=     1    49     2     1

     -------------------------------
     INTEGRAL TRANSFORMATION OPTIONS
     -------------------------------
     NWORD  =            0
     CUTOFF = 1.0E-09     MPTRAN =       0
     DIRTRF =       F     AOINTS =DUP     

          ----------------------
          INTEGRAL INPUT OPTIONS
          ----------------------
 NOPK  =       1 NORDER=       0 SCHWRZ=       F

   --- ENCODED Z MATRIX ---
 COORD  TYPE   I   J   K   L   M   N
    1      1    3   1
    2      1    2   1
    3      2    2   1   3

 THE DETERMINANT OF THE G MATRIX IS 10**(    -4)

 THE DETERMINANT OF THE G MATRIX IS 10**(    -4)
 * * * WARNING * * *
 YOUR B MATRIX HAS A SMALL DETERMINANT.
 THIS SUGGESTS YOU MAY HAVE BADLY CHOSEN COORDINATES.

     ------------------------------------------
     THE POINT GROUP IS CNV, NAXIS= 2, ORDER= 4
     ------------------------------------------

 -- VARIATIONAL SPACE WILL BE RESTRICTED TO PURE SPHERICAL HARMONICS ONLY --
 AFTER EXCLUDING CONTAMINANT COMBINATIONS FROM THE CARTESIAN GAUSSIAN BASIS
 SET, THE NUMBER OF SPHERICAL HARMONICS KEPT IN THE VARIATION SPACE IS   46

     DIMENSIONS OF THE SYMMETRY SUBSPACES ARE
 A1  =   19     A2  =    5     B1  =   14     B2  =    8

 ..... DONE SETTING UP THE RUN .....
 STEP CPU TIME =     0.01 TOTAL CPU TIME =        0.0 (    0.0 MIN)
 TOTAL WALL CLOCK TIME=        0.0 SECONDS, CPU UTILIZATION IS  50.00%

          ********************
          1 ELECTRON INTEGRALS
          ********************
 ...... END OF ONE-ELECTRON INTEGRALS ......
 STEP CPU TIME =     0.01 TOTAL CPU TIME =        0.0 (    0.0 MIN)
 TOTAL WALL CLOCK TIME=        0.0 SECONDS, CPU UTILIZATION IS 100.00%

          -------------
          GUESS OPTIONS
          -------------
          GUESS =HUCKEL            NORB  =       0          NORDER=       0
          MIX   =       F          PRTMO =       F          PUNMO =       F
          TOLZ  = 1.0E-08          TOLE  = 1.0E-05
          SYMDEN=       F          PURIFY=       F

 INITIAL GUESS ORBITALS GENERATED BY HUCKEL   ROUTINE.
 HUCKEL GUESS REQUIRES     21583 WORDS.

 STATISTICS FOR GENERATION OF SYMMETRY ORBITAL -Q- MATRIX
 NUMBER OF CARTESIAN ATOMIC ORBITALS=         49
 NUMBER OF SPHERICAL CONTAMINANTS DROPPED=     3
 NUMBER OF LINEARLY DEPENDENT MOS DROPPED=     0
 TOTAL NUMBER OF MOS IN VARIATION SPACE=      46

 SYMMETRIES FOR INITIAL GUESS ORBITALS FOLLOW.   BOTH SET(S).
    16 ORBITALS ARE OCCUPIED (    7 CORE ORBITALS).
     8=?B1      9=?A1     10=A1      11=B1      12=B2      13=A1      14=A2  
    15=B1      16=?A1     17=B2      18=?A1     19=?B1     20=A1      21=A1  
    22=A1      23=A1      24=A1      25=A1      26=A1  
 ...... END OF INITIAL ORBITAL SELECTION ......
 STEP CPU TIME =     0.00 TOTAL CPU TIME =        0.0 (    0.0 MIN)
 TOTAL WALL CLOCK TIME=        0.0 SECONDS, CPU UTILIZATION IS  66.67%

                    ----------------------
                    AO INTEGRAL TECHNOLOGY
                    ----------------------
     S,P,L SHELL ROTATED AXIS INTEGRALS, REPROGRAMMED BY
        KAZUYA ISHIMURA (IMS) AND JOSE SIERRA (SYNSTAR).
     S,P,D,L SHELL ROTATED AXIS INTEGRALS PROGRAMMED BY
        KAZUYA ISHIMURA (INSTITUTE FOR MOLECULAR SCIENCE).
     S,P,D,F,G SHELL TO TOTAL QUARTET ANGULAR MOMENTUM SUM 5,
        ERIC PROGRAM BY GRAHAM FLETCHER (ELORET AND NASA ADVANCED
        SUPERCOMPUTING DIVISION, AMES RESEARCH CENTER).
     S,P,D,F,G,L SHELL GENERAL RYS QUADRATURE PROGRAMMED BY
        MICHEL DUPUIS (PACIFIC NORTHWEST NATIONAL LABORATORY).

          --------------------
          2 ELECTRON INTEGRALS
          --------------------

 THE -PK- OPTION IS OFF, THE INTEGRALS ARE NOT IN SUPERMATRIX FORM.
 STORING   15000 INTEGRALS/RECORD ON DISK, USING 12 BYTES/INTEGRAL.
 TWO ELECTRON INTEGRAL EVALUATION REQUIRES   90606 WORDS OF MEMORY.
 II,JST,KST,LST =  1  1  1  1 NREC =         1 INTLOC =    1
 II,JST,KST,LST =  2  1  1  1 NREC =         1 INTLOC =    2
 II,JST,KST,LST =  3  1  1  1 NREC =         1 INTLOC =    7
 II,JST,KST,LST =  4  1  1  1 NREC =         1 INTLOC =   22
 II,JST,KST,LST =  5  1  1  1 NREC =         1 INTLOC =   56
 II,JST,KST,LST =  6  1  1  1 NREC =         1 INTLOC =  125
 II,JST,KST,LST =  7  1  1  1 NREC =         1 INTLOC =  329
 II,JST,KST,LST =  8  1  1  1 NREC =         1 INTLOC =  776
 II,JST,KST,LST =  9  1  1  1 NREC =         1 INTLOC = 2864
 II,JST,KST,LST = 10  1  1  1 NREC =         1 INTLOC = 2864
 II,JST,KST,LST = 11  1  1  1 NREC =         1 INTLOC = 2864
 II,JST,KST,LST = 12  1  1  1 NREC =         1 INTLOC = 2864
 II,JST,KST,LST = 13  1  1  1 NREC =         1 INTLOC = 2864
 II,JST,KST,LST = 14  1  1  1 NREC =         1 INTLOC = 2864
 II,JST,KST,LST = 15  1  1  1 NREC =         1 INTLOC = 2864
 II,JST,KST,LST = 16  1  1  1 NREC =         1 INTLOC = 4736
 II,JST,KST,LST = 17  1  1  1 NREC =         1 INTLOC = 7698
 II,JST,KST,LST = 18  1  1  1 NREC =         1 INTLOC =11925
 II,JST,KST,LST = 19  1  1  1 NREC =         2 INTLOC =11986
 II,JST,KST,LST = 20  1  1  1 NREC =         4 INTLOC =11144
 TOTAL NUMBER OF NONZERO TWO-ELECTRON INTEGRALS =              145028
         10 INTEGRAL RECORDS WERE STORED ON DISK FILE  8.
  ...... END OF TWO-ELECTRON INTEGRALS .....
 STEP CPU TIME =     0.15 TOTAL CPU TIME =        0.2 (    0.0 MIN)
 TOTAL WALL CLOCK TIME=        0.2 SECONDS, CPU UTILIZATION IS  94.44%

          --------------------------
               R-PBE SCF CALCULATION
          --------------------------

     NUCLEAR ENERGY =        80.3496194560
     MAXIT =   30     NPUNCH=    2
     EXTRAP=T  DAMP=F  SHIFT=F  RSTRCT=F  DIIS=T  DEM=F  SOSCF=F
         DENSITY MATRIX CONVERGENCE THRESHOLD=  1.00E-05
     COARSE -> FINE DFT GRID SWITCH THRESHOLD=  3.00E-04 (SWITCH IN $DFT)
                   HF -> DFT SWITCH THRESHOLD=  5.00E-03 (SWOFF IN $DFT)
     MEMORY REQUIRED FOR RHF ITERS=    183108 WORDS.

 DFT CODE IS SWITCHING FROM THE FINE GRID NRAD= 96,  NLEB=  302
                      TO THE COARSE GRID NRAD0= 24, NLEB0=  110

     EXCHANGE FUNCTIONAL   =PBE       
     CORRELATION FUNCTIONAL=PBE       
     DFT THRESHOLD         =.460E-07
     GRID CHANGE THRESHOLD =.300E-03
 FOR AN EULER-MACLAURIN QUADRATURE USING  96 RADIAL POINTS:
 SMALLEST GAUSSIAN PRIMITIVE EXPONENT=        0.1313100000 OF TYPE -P-
 ON ATOM NUMBER   1 HAS RADIAL NORMALIZATION=  1.000000
  LARGEST GAUSSIAN PRIMITIVE EXPONENT=    55510.0000000000 OF TYPE -S-
 ON ATOM NUMBER   1 HAS RADIAL NORMALIZATION=  0.999999
 DFT IS SWITCHED OFF, PERFORMING PURE SCF UNTIL SWOFF THRESHOLD IS REACHED.

 ITER EX DEM     TOTAL ENERGY        E CHANGE  DENSITY CHANGE    DIIS ERROR
   1  0  0     -545.6256975792  -545.6256975792   0.713454417   0.922635671
   2  1  0     -545.5167637014     0.1089338778   1.014640538   0.752223118
   3  2  0     -544.6679771896     0.8487865118   1.286515657   0.781044848
   4  3  0     -542.2577253869     2.4102518027   1.367495912   1.570708094
   5  0  0     -542.1499701327     0.1077552542   0.742397952   1.082243744
          * * *   INITIATING DIIS PROCEDURE   * * *
   6  1  0     -546.5132673814    -4.3632972487   0.561461433   0.239754447
   7  2  0     -546.2398849155     0.2733824659   0.321515596   0.450491124
   8  3  0     -546.7602391163    -0.5203542007   0.039356597   0.038471445
   9  4  0     -546.7744268592    -0.0141877430   0.057665545   0.024683433
  10  5  0     -546.7848263031    -0.0103994439   0.052016841   0.016682751
  11  6  0     -546.7920493564    -0.0072230532   0.086740121   0.016321411
  12  7  0     -546.8016949860    -0.0096456296   0.082826420   0.009370795
  13  8  0     -546.8058989084    -0.0042039225   0.023276160   0.006390344
  14  9  0     -546.8057667691     0.0001321394   0.025627037   0.003901603
  15 10  0     -546.8061705905    -0.0004038215   0.013545561   0.003961660
  16 11  0     -546.8063612707    -0.0001906802   0.006188263   0.001517166
  17 12  0     -546.8063899089    -0.0000286382   0.001139338   0.000301949
 CONVERGED TO SWOFF, SO DFT CALCULATION IS NOW SWITCHED ON.
          * * *   INITIATING DIIS PROCEDURE   * * *
  18 13  0     -547.9535685996    -1.1471786908   0.622579219   0.101575020
  19 14  0     -547.9868495233    -0.0332809237   0.459961631   0.194441842
  20 15  0     -547.8036728327     0.1831766906   0.241282580   0.382895993
  21 16  0     -548.1061968027    -0.3025239700   0.045427030   0.024496874
  22 17  0     -548.1086382919    -0.0024414892   0.013646987   0.010720726
  23 18  0     -548.1090336286    -0.0003953367   0.004074283   0.002348744
  24 19  0     -548.1090590951    -0.0000254665   0.001107358   0.000703591
  25 20  0     -548.1090611275    -0.0000020324   0.000099943   0.000063702
 DFT CODE IS SWITCHING BACK TO THE FINE GRID
          * * *   INITIATING DIIS PROCEDURE   * * *
  26 21  0     -548.0888851776     0.0201759499   0.013371599   0.007960957
  27 22  0     -548.0889843471    -0.0000991695   0.013956734   0.004215750
  28 23  0     -548.0884897944     0.0004945527   0.013368734   0.016381596
  29 24  0     -548.0890227598    -0.0005329654   0.002557839   0.002183401
  30 25  0     -548.0890425783    -0.0000198185   0.000377735   0.000249296

 SCF IS UNCONVERGED, TOO MANY ITERATIONS
     TIME TO FORM FOCK OPERATORS=       2.7 SECONDS (       0.1 SEC/ITER)
     TIME TO SOLVE SCF EQUATIONS=       0.0 SECONDS (       0.0 SEC/ITER)

 FINAL R-PBE ENERGY IS        0.0000000000 AFTER  30 ITERATIONS
 DFT EXCHANGE + CORRELATION ENERGY =       -42.1112168722
 TOTAL ELECTRON NUMBER             =        32.0000075669

          ------------
          EIGENVECTORS
          ------------

                      1          2          3          4          5
                  -88.2226   -18.8418   -18.8417    -7.8408    -5.8624
                     A1         B1         A1         A1         B1  
    1  S  1  S    1.002977   0.000000  -0.000049  -0.274149   0.000000
    2  S  1  S   -0.010277   0.000000  -0.000816   1.039556   0.000000
    3  S  1  S    0.001768   0.000000  -0.001525   0.040186   0.000000
    4  S  1  S   -0.000966   0.000000   0.004761  -0.012474   0.000000
    5  S  1  X    0.000000   0.000118   0.000000   0.000000   0.996945
    6  S  1  Y    0.000000   0.000000   0.000000   0.000000   0.000000
    7  S  1  Z    0.000039   0.000000  -0.000024   0.006129   0.000000
    8  S  1  X    0.000000  -0.000262   0.000000   0.000000   0.008740
    9  S  1  Y    0.000000   0.000000   0.000000   0.000000   0.000000
   10  S  1  Z   -0.000007   0.000000   0.000092   0.000351   0.000000
   11  S  1  X    0.000000  -0.006340   0.000000   0.000000  -0.000116
   12  S  1  Y    0.000000   0.000000   0.000000   0.000000   0.000000
   13  S  1  Z   -0.000017   0.000000   0.000708  -0.000278   0.000000
   14  S  1 XX   -0.000022   0.000000   0.001470   0.000118   0.000000
   15  S  1 YY    0.000012   0.000000  -0.000777  -0.000045   0.000000
   16  S  1 ZZ    0.000010   0.000000  -0.000693  -0.000073   0.000000
   17  S  1 XY    0.000000   0.000000   0.000000   0.000000   0.000000
   18  S  1 XZ    0.000000  -0.000684   0.000000   0.000000   0.000356
   19  S  1 YZ    0.000000   0.000000   0.000000   0.000000   0.000000
   20  O  2  S   -0.000002   0.703263   0.703199   0.000006   0.000019
   21  O  2  S   -0.000012   0.025348   0.024460   0.000014   0.000067
   22  O  2  S    0.000093  -0.011428  -0.008817   0.000723  -0.000025
   23  O  2  X    0.000015   0.000744   0.000665   0.000068   0.000056
   24  O  2  Y    0.000000   0.000000   0.000000   0.000000   0.000000
   25  O  2  Z   -0.000004  -0.000180  -0.000065  -0.000027  -0.000021
   26  O  2  X    0.000007  -0.002673  -0.001869  -0.000161  -0.000062
   27  O  2  Y    0.000000   0.000000   0.000000   0.000000   0.000000
   28  O  2  Z    0.000004   0.000710   0.000169   0.000092   0.000043
   29  O  2 XX   -0.000032  -0.000223  -0.000325  -0.000508  -0.000070
   30  O  2 YY    0.000017   0.000129   0.000178   0.000267   0.000038
   31  O  2 ZZ    0.000015   0.000095   0.000147   0.000240   0.000032
   32  O  2 XY    0.000000   0.000000   0.000000   0.000000   0.000000
   33  O  2 XZ    0.000011   0.000109   0.000106   0.000167   0.000031
   34  O  2 YZ    0.000000   0.000000   0.000000   0.000000   0.000000
   35  O  3  S   -0.000002  -0.703263   0.703199   0.000006  -0.000019
   36  O  3  S   -0.000012  -0.025348   0.024460   0.000014  -0.000067
   37  O  3  S    0.000093   0.011428  -0.008817   0.000723   0.000025
   38  O  3  X   -0.000015   0.000744  -0.000665  -0.000068   0.000056
   39  O  3  Y    0.000000   0.000000   0.000000   0.000000   0.000000
   40  O  3  Z   -0.000004   0.000180  -0.000065  -0.000027   0.000021
   41  O  3  X   -0.000007  -0.002673   0.001869   0.000161  -0.000062
   42  O  3  Y    0.000000   0.000000   0.000000   0.000000   0.000000
   43  O  3  Z    0.000004  -0.000710   0.000169   0.000092  -0.000043
   44  O  3 XX   -0.000032   0.000223  -0.000325  -0.000508   0.000070
   45  O  3 YY    0.000017  -0.000129   0.000178   0.000267  -0.000038
   46  O  3 ZZ    0.000015  -0.000095   0.000147   0.000240  -0.000032
   47  O  3 XY    0.000000   0.000000   0.000000   0.000000   0.000000
   48  O  3 XZ   -0.000011   0.000109  -0.000106  -0.000167   0.000031
   49  O  3 YZ    0.000000   0.000000   0.000000   0.000000   0.000000

                      6          7          8          9         10
                   -5.8593    -5.8587    -0.9009    -0.8778    -0.6699
                     B2         A1         A1         B1         A1  
    1  S  1  S    0.000000   0.001692   0.036248   0.000000   0.078080
    2  S  1  S    0.000000  -0.006445  -0.108755   0.000000  -0.226466
    3  S  1  S    0.000000  -0.000003   0.210643   0.000000   0.480643
    4  S  1  S    0.000000  -0.000173   0.181524   0.000000   0.469473
    5  S  1  X    0.000000   0.000000   0.000000   0.062022   0.000000
    6  S  1  Y    0.996977   0.000000   0.000000   0.000000   0.000000
    7  S  1  Z    0.000000   0.996970  -0.012485   0.000000  -0.003248
    8  S  1  X    0.000000   0.000000   0.000000  -0.125566   0.000000
    9  S  1  Y    0.008676   0.000000   0.000000   0.000000   0.000000
   10  S  1  Z    0.000000   0.008636   0.026646   0.000000   0.010754
   11  S  1  X    0.000000   0.000000   0.000000  -0.032481   0.000000
   12  S  1  Y   -0.000128   0.000000   0.000000   0.000000   0.000000
   13  S  1  Z    0.000000  -0.000133   0.007684   0.000000  -0.001114
   14  S  1 XX    0.000000  -0.000260   0.033198   0.000000  -0.009198
   15  S  1 YY    0.000000  -0.000165  -0.017499   0.000000   0.005251
   16  S  1 ZZ    0.000000   0.000425  -0.015699   0.000000   0.003947
   17  S  1 XY    0.000000   0.000000   0.000000   0.000000   0.000000
   18  S  1 XZ    0.000000   0.000000   0.000000  -0.012640   0.000000
   19  S  1 YZ    0.000342   0.000000   0.000000   0.000000   0.000000
   20  O  2  S    0.000000  -0.000008  -0.140516  -0.155898   0.084101
   21  O  2  S    0.000000  -0.000060   0.284255   0.315384  -0.175997
   22  O  2  S    0.000000   0.000111   0.356759   0.404545  -0.259652
   23  O  2  X    0.000000  -0.000014   0.056697   0.048136   0.084442
   24  O  2  Y    0.000000   0.000000   0.000000   0.000000   0.000000
   25  O  2  Z    0.000000   0.000004  -0.008872  -0.008036  -0.012013
   26  O  2  X    0.000000   0.000090   0.030107   0.031585   0.037093
   27  O  2  Y   -0.000033   0.000000   0.000000   0.000000   0.000000
   28  O  2  Z    0.000000  -0.000054  -0.005137  -0.005157  -0.003636
   29  O  2 XX    0.000000   0.000036   0.007131   0.006608   0.006359
   30  O  2 YY    0.000000  -0.000022  -0.002830  -0.002465  -0.003834
   31  O  2 ZZ    0.000000  -0.000014  -0.004301  -0.004143  -0.002524
   32  O  2 XY   -0.000025   0.000000   0.000000   0.000000   0.000000
   33  O  2 XZ    0.000000  -0.000039  -0.000199   0.000056  -0.002836
   34  O  2 YZ    0.000003   0.000000   0.000000   0.000000   0.000000
   35  O  3  S    0.000000  -0.000008  -0.140516   0.155898   0.084101
   36  O  3  S    0.000000  -0.000060   0.284255  -0.315384  -0.175997
   37  O  3  S    0.000000   0.000111   0.356759  -0.404545  -0.259652
   38  O  3  X    0.000000   0.000014  -0.056697   0.048136  -0.084442
   39  O  3  Y    0.000000   0.000000   0.000000   0.000000   0.000000
   40  O  3  Z    0.000000   0.000004  -0.008872   0.008036  -0.012013
   41  O  3  X    0.000000  -0.000090  -0.030107   0.031585  -0.037093
   42  O  3  Y   -0.000033   0.000000   0.000000   0.000000   0.000000
   43  O  3  Z    0.000000  -0.000054  -0.005137   0.005157  -0.003636
   44  O  3 XX    0.000000   0.000036   0.007131  -0.006608   0.006359
   45  O  3 YY    0.000000  -0.000022  -0.002830   0.002465  -0.003834
   46  O  3 ZZ    0.000000  -0.000014  -0.004301   0.004143  -0.002524
   47  O  3 XY    0.000025   0.000000   0.000000   0.000000   0.000000
   48  O  3 XZ    0.000000   0.000039   0.000199   0.000056   0.002836
   49  O  3 YZ    0.000003   0.000000   0.000000   0.000000   0.000000

                     11         12         13         14         15
                   -0.4233    -0.3694    -0.3690    -0.3091    -0.3049
                     B1         A1         B2         A2         B1  
    1  S  1  S    0.000000  -0.007107   0.000000   0.000000   0.000000
    2  S  1  S    0.000000   0.023284   0.000000   0.000000   0.000000
    3  S  1  S    0.000000  -0.041620   0.000000   0.000000   0.000000
    4  S  1  S    0.000000  -0.080048   0.000000   0.000000   0.000000
    5  S  1  X   -0.185709   0.000000   0.000000   0.000000  -0.017026
    6  S  1  Y    0.000000   0.000000  -0.210662   0.000000   0.000000
    7  S  1  Z    0.000000  -0.210958   0.000000   0.000000   0.000000
    8  S  1  X    0.437472   0.000000   0.000000   0.000000   0.038774
    9  S  1  Y    0.000000   0.000000   0.496677   0.000000   0.000000
   10  S  1  Z    0.000000   0.496930   0.000000   0.000000   0.000000
   11  S  1  X    0.139157   0.000000   0.000000   0.000000   0.053429
   12  S  1  Y    0.000000   0.000000   0.344423   0.000000   0.000000
   13  S  1  Z    0.000000   0.339363   0.000000   0.000000   0.000000
   14  S  1 XX    0.000000   0.003559   0.000000   0.000000   0.000000
   15  S  1 YY    0.000000  -0.013133   0.000000   0.000000   0.000000
   16  S  1 ZZ    0.000000   0.009574   0.000000   0.000000   0.000000
   17  S  1 XY    0.000000   0.000000   0.000000  -0.065033   0.000000
   18  S  1 XZ    0.018377   0.000000   0.000000   0.000000  -0.063433
   19  S  1 YZ    0.000000   0.000000   0.013057   0.000000   0.000000
   20  O  2  S   -0.045850   0.006317   0.000000   0.000000  -0.002922
   21  O  2  S    0.104964  -0.012451   0.000000   0.000000   0.003225
   22  O  2  S    0.154074  -0.028176   0.000000   0.000000   0.025239
   23  O  2  X   -0.344196   0.145241   0.000000   0.000000   0.101675
   24  O  2  Y    0.000000   0.000000   0.286438   0.475764   0.000000
   25  O  2  Z    0.052416   0.247052   0.000000   0.000000   0.462921
   26  O  2  X   -0.225425   0.092490   0.000000   0.000000   0.078797
   27  O  2  Y    0.000000   0.000000   0.181999   0.336500   0.000000
   28  O  2  Z    0.035124   0.157098   0.000000   0.000000   0.326419
   29  O  2 XX   -0.014465   0.006183   0.000000   0.000000   0.003112
   30  O  2 YY    0.007937  -0.001661   0.000000   0.000000   0.000115
   31  O  2 ZZ    0.006528  -0.004522   0.000000   0.000000  -0.003227
   32  O  2 XY    0.000000   0.000000   0.011230   0.010353   0.000000
   33  O  2 XZ    0.005513   0.009256   0.000000   0.000000   0.009878
   34  O  2 YZ    0.000000   0.000000  -0.001901  -0.001945   0.000000
   35  O  3  S    0.045850   0.006317   0.000000   0.000000   0.002922
   36  O  3  S   -0.104964  -0.012451   0.000000   0.000000  -0.003225
   37  O  3  S   -0.154074  -0.028176   0.000000   0.000000  -0.025239
   38  O  3  X   -0.344196  -0.145241   0.000000   0.000000   0.101675
   39  O  3  Y    0.000000   0.000000   0.286438  -0.475764   0.000000
   40  O  3  Z   -0.052416   0.247052   0.000000   0.000000  -0.462921
   41  O  3  X   -0.225425  -0.092490   0.000000   0.000000   0.078797
   42  O  3  Y    0.000000   0.000000   0.181999  -0.336500   0.000000
   43  O  3  Z   -0.035124   0.157098   0.000000   0.000000  -0.326419
   44  O  3 XX    0.014465   0.006183   0.000000   0.000000  -0.003112
   45  O  3 YY   -0.007937  -0.001661   0.000000   0.000000  -0.000115
   46  O  3 ZZ   -0.006528  -0.004522   0.000000   0.000000   0.003227
   47  O  3 XY    0.000000   0.000000  -0.011230   0.010353   0.000000
   48  O  3 XZ    0.005513  -0.009256   0.000000   0.000000   0.009878
   49  O  3 YZ    0.000000   0.000000  -0.001901   0.001945   0.000000

                     16         17         18         19         20
                   -0.2790    -0.2473    -0.2364    -0.0579     0.3447
                     A1         B2         A1         B1         B1  
    1  S  1  S   -0.023772   0.000000   0.011623   0.000000   0.000000
    2  S  1  S    0.082694   0.000000  -0.034311   0.000000   0.000000
    3  S  1  S   -0.136459   0.000000   0.075831   0.000000   0.000000
    4  S  1  S   -0.339460   0.000000   0.146467   0.000000   0.000000
    5  S  1  X    0.000000   0.000000   0.000000  -0.248314   0.232172
    6  S  1  Y    0.000000  -0.195990   0.000000   0.000000   0.000000
    7  S  1  Z   -0.033678   0.000000  -0.193050   0.000000   0.000000
    8  S  1  X    0.000000   0.000000   0.000000   0.646554  -0.953798
    9  S  1  Y    0.000000   0.484691   0.000000   0.000000   0.000000
   10  S  1  Z    0.083045   0.000000   0.478976   0.000000   0.000000
   11  S  1  X    0.000000   0.000000   0.000000   0.692252   1.726162
   12  S  1  Y    0.000000   0.339272   0.000000   0.000000   0.000000
   13  S  1  Z    0.022825   0.000000   0.351143   0.000000   0.000000
   14  S  1 XX    0.110376   0.000000  -0.046548   0.000000   0.000000
   15  S  1 YY   -0.054115   0.000000   0.027227   0.000000   0.000000
   16  S  1 ZZ   -0.056261   0.000000   0.019321   0.000000   0.000000
   17  S  1 XY    0.000000   0.000000   0.000000   0.000000   0.000000
   18  S  1 XZ    0.000000   0.000000   0.000000  -0.051023  -0.260882
   19  S  1 YZ    0.000000  -0.004001   0.000000   0.000000   0.000000
   20  O  2  S    0.000217   0.000000   0.007404  -0.046756  -0.035648
   21  O  2  S   -0.003504   0.000000  -0.014887   0.096726   0.035254
   22  O  2  S    0.026948   0.000000  -0.048816   0.316141   0.571241
   23  O  2  X    0.383190   0.000000  -0.257751   0.355917  -0.183778
   24  O  2  Y    0.000000  -0.401064   0.000000   0.000000   0.000000
   25  O  2  Z   -0.283949   0.000000  -0.312295  -0.121053  -0.089502
   26  O  2  X    0.275222   0.000000  -0.189802   0.338921   0.377332
   27  O  2  Y    0.000000  -0.287042   0.000000   0.000000   0.000000
   28  O  2  Z   -0.201167   0.000000  -0.223526  -0.096912  -0.036661
   29  O  2 XX    0.006735   0.000000  -0.001506  -0.004910   0.049955
   30  O  2 YY   -0.004186   0.000000   0.000852   0.003309  -0.023518
   31  O  2 ZZ   -0.002549   0.000000   0.000655   0.001600  -0.026437
   32  O  2 XY    0.000000  -0.000159   0.000000   0.000000   0.000000
   33  O  2 XZ   -0.006051   0.000000   0.001542   0.005037   0.000151
   34  O  2 YZ    0.000000   0.000130   0.000000   0.000000   0.000000
   35  O  3  S    0.000217   0.000000   0.007404   0.046756   0.035648
   36  O  3  S   -0.003504   0.000000  -0.014887  -0.096726  -0.035254
   37  O  3  S    0.026948   0.000000  -0.048816  -0.316141  -0.571241
   38  O  3  X   -0.383190   0.000000   0.257751   0.355917  -0.183778
   39  O  3  Y    0.000000  -0.401064   0.000000   0.000000   0.000000
   40  O  3  Z   -0.283949   0.000000  -0.312295   0.121053   0.089502
   41  O  3  X   -0.275222   0.000000   0.189802   0.338921   0.377332
   42  O  3  Y    0.000000  -0.287042   0.000000   0.000000   0.000000
   43  O  3  Z   -0.201167   0.000000  -0.223526   0.096912   0.036661
   44  O  3 XX    0.006735   0.000000  -0.001506   0.004910  -0.049955
   45  O  3 YY   -0.004186   0.000000   0.000852  -0.003309   0.023518
   46  O  3 ZZ   -0.002549   0.000000   0.000655  -0.001600   0.026437
   47  O  3 XY    0.000000   0.000159   0.000000   0.000000   0.000000
   48  O  3 XZ    0.006051   0.000000  -0.001542   0.005037   0.000151
   49  O  3 YZ    0.000000   0.000130   0.000000   0.000000   0.000000

                     21         22         23         24         25
                    0.3695     0.3713     0.3919     0.4595     0.5003
                     A1         B2         A1         A2         B1  
    1  S  1  S   -0.029725   0.000000  -0.103750   0.000000   0.000000
    2  S  1  S   -0.121562   0.000000  -0.361049   0.000000   0.000000
    3  S  1  S   -0.477522   0.000000  -1.586011   0.000000   0.000000
    4  S  1  S    0.620380   0.000000   1.822187   0.000000   0.000000
    5  S  1  X    0.000000   0.000000   0.000000   0.000000   0.073662
    6  S  1  Y    0.000000   0.298735   0.000000   0.000000   0.000000
    7  S  1  Z    0.282359   0.000000  -0.093462   0.000000   0.000000
    8  S  1  X    0.000000   0.000000   0.000000   0.000000  -0.334207
    9  S  1  Y    0.000000  -1.150609   0.000000   0.000000   0.000000
   10  S  1  Z   -1.088806   0.000000   0.358685   0.000000   0.000000
   11  S  1  X    0.000000   0.000000   0.000000   0.000000   0.801062
   12  S  1  Y    0.000000   1.208149   0.000000   0.000000   0.000000
   13  S  1  Z    1.170096   0.000000  -0.341128   0.000000   0.000000
   14  S  1 XX   -0.118043   0.000000  -0.341358   0.000000   0.000000
   15  S  1 YY    0.106724   0.000000   0.159749   0.000000   0.000000
   16  S  1 ZZ    0.011319   0.000000   0.181609   0.000000   0.000000
   17  S  1 XY    0.000000   0.000000   0.000000   0.843990   0.000000
   18  S  1 XZ    0.000000   0.000000   0.000000   0.000000   0.806057
   19  S  1 YZ    0.000000  -0.053865   0.000000   0.000000   0.000000
   20  O  2  S    0.006319   0.000000   0.008919   0.000000  -0.031851
   21  O  2  S    0.000145   0.000000  -0.009215   0.000000   0.128902
   22  O  2  S   -0.127721   0.000000  -0.151097   0.000000   0.217632
   23  O  2  X    0.042304   0.000000   0.088198   0.000000   0.051752
   24  O  2  Y    0.000000  -0.117123   0.000000   0.332450   0.000000
   25  O  2  Z   -0.134985   0.000000  -0.020922   0.000000   0.297365
   26  O  2  X   -0.105126   0.000000  -0.141459   0.000000   0.180974
   27  O  2  Y    0.000000  -0.056892   0.000000  -0.229175   0.000000
   28  O  2  Z   -0.031201   0.000000   0.060687   0.000000  -0.275089
   29  O  2 XX   -0.021146   0.000000  -0.038950   0.000000  -0.008122
   30  O  2 YY    0.011620   0.000000   0.021405   0.000000  -0.003744
   31  O  2 ZZ    0.009526   0.000000   0.017544   0.000000   0.011866
   32  O  2 XY    0.000000  -0.001468   0.000000  -0.048531   0.000000
   33  O  2 XZ    0.007340   0.000000   0.018685   0.000000  -0.043592
   34  O  2 YZ    0.000000  -0.000171   0.000000   0.009904   0.000000
   35  O  3  S    0.006319   0.000000   0.008919   0.000000   0.031851
   36  O  3  S    0.000145   0.000000  -0.009215   0.000000  -0.128902
   37  O  3  S   -0.127721   0.000000  -0.151097   0.000000  -0.217632
   38  O  3  X   -0.042304   0.000000  -0.088198   0.000000   0.051752
   39  O  3  Y    0.000000  -0.117123   0.000000  -0.332450   0.000000
   40  O  3  Z   -0.134985   0.000000  -0.020922   0.000000  -0.297365
   41  O  3  X    0.105126   0.000000   0.141459   0.000000   0.180974
   42  O  3  Y    0.000000  -0.056892   0.000000   0.229175   0.000000
   43  O  3  Z   -0.031201   0.000000   0.060687   0.000000   0.275089
   44  O  3 XX   -0.021146   0.000000  -0.038950   0.000000   0.008122
   45  O  3 YY    0.011620   0.000000   0.021405   0.000000   0.003744
   46  O  3 ZZ    0.009526   0.000000   0.017544   0.000000  -0.011866
   47  O  3 XY    0.000000   0.001468   0.000000  -0.048531   0.000000
   48  O  3 XZ   -0.007340   0.000000  -0.018685   0.000000  -0.043592
   49  O  3 YZ    0.000000  -0.000171   0.000000  -0.009904   0.000000

                     26         27         28         29         30
                    0.5029     0.5029     0.6792     0.7954     0.7972
                     A1         B2         A1         B2         B1  
    1  S  1  S    0.001926   0.000000  -0.051602   0.000000   0.000000
    2  S  1  S    0.006796   0.000000  -0.229065   0.000000   0.000000
    3  S  1  S    0.029593   0.000000  -0.855574   0.000000   0.000000
    4  S  1  S   -0.034641   0.000000   1.167670   0.000000   0.000000
    5  S  1  X    0.000000   0.000000   0.000000   0.000000  -0.029785
    6  S  1  Y    0.000000   0.015111   0.000000  -0.034362   0.000000
    7  S  1  Z    0.015653   0.000000   0.011526   0.000000   0.000000
    8  S  1  X    0.000000   0.000000   0.000000   0.000000   0.146658
    9  S  1  Y    0.000000  -0.052925   0.000000   0.180168   0.000000
   10  S  1  Z   -0.054849   0.000000  -0.062794   0.000000   0.000000
   11  S  1  X    0.000000   0.000000   0.000000   0.000000  -0.045964
   12  S  1  Y    0.000000   0.023017   0.000000  -0.511045   0.000000
   13  S  1  Z    0.023661   0.000000   0.201364   0.000000   0.000000
   14  S  1 XX   -0.028815   0.000000   0.869674   0.000000   0.000000
   15  S  1 YY   -0.843046   0.000000  -0.483894   0.000000   0.000000
   16  S  1 ZZ    0.871860   0.000000  -0.385780   0.000000   0.000000
   17  S  1 XY    0.000000   0.000000   0.000000   0.000000   0.000000
   18  S  1 XZ    0.000000   0.000000   0.000000   0.000000   0.526957
   19  S  1 YZ    0.000000   0.991027   0.000000  -0.122799   0.000000
   20  O  2  S   -0.000600   0.000000   0.050651   0.000000  -0.009321
   21  O  2  S    0.003218   0.000000  -0.329384   0.000000   0.080708
   22  O  2  S    0.001013   0.000000   0.014121   0.000000  -0.053971
   23  O  2  X   -0.012300   0.000000  -0.092421   0.000000  -0.233782
   24  O  2  Y    0.000000  -0.077432   0.000000  -0.625090   0.000000
   25  O  2  Z   -0.078192   0.000000   0.140634   0.000000  -0.504895
   26  O  2  X    0.014213   0.000000  -0.291953   0.000000   0.355271
   27  O  2  Y    0.000000   0.057143   0.000000   0.822270   0.000000
   28  O  2  Z    0.056186   0.000000  -0.092265   0.000000   0.634333
   29  O  2 XX    0.003439   0.000000   0.040735   0.000000  -0.038649
   30  O  2 YY   -0.009715   0.000000  -0.024718   0.000000   0.012964
   31  O  2 ZZ    0.006276   0.000000  -0.016016   0.000000   0.025686
   32  O  2 XY    0.000000   0.011919   0.000000  -0.016821   0.000000
   33  O  2 XZ    0.011683   0.000000  -0.026934   0.000000  -0.031038
   34  O  2 YZ    0.000000   0.009270   0.000000   0.000780   0.000000
   35  O  3  S   -0.000600   0.000000   0.050651   0.000000   0.009321
   36  O  3  S    0.003218   0.000000  -0.329384   0.000000  -0.080708
   37  O  3  S    0.001013   0.000000   0.014121   0.000000   0.053971
   38  O  3  X    0.012300   0.000000   0.092421   0.000000  -0.233782
   39  O  3  Y    0.000000  -0.077432   0.000000  -0.625090   0.000000
   40  O  3  Z   -0.078192   0.000000   0.140634   0.000000   0.504895
   41  O  3  X   -0.014213   0.000000   0.291953   0.000000   0.355271
   42  O  3  Y    0.000000   0.057143   0.000000   0.822270   0.000000
   43  O  3  Z    0.056186   0.000000  -0.092265   0.000000  -0.634333
   44  O  3 XX    0.003439   0.000000   0.040735   0.000000   0.038649
   45  O  3 YY   -0.009715   0.000000  -0.024718   0.000000  -0.012964
   46  O  3 ZZ    0.006276   0.000000  -0.016016   0.000000  -0.025686
   47  O  3 XY    0.000000  -0.011919   0.000000   0.016821   0.000000
   48  O  3 XZ   -0.011683   0.000000   0.026934   0.000000  -0.031038
   49  O  3 YZ    0.000000   0.009270   0.000000   0.000780   0.000000

                     31         32         33         34         35
                    0.8010     0.8040     0.8097     0.8276     1.4382
                     A2         A1         A1         B1         A1  
    1  S  1  S    0.000000  -0.006411  -0.022165   0.000000   0.023200
    2  S  1  S    0.000000  -0.018629  -0.010630   0.000000   0.228854
    3  S  1  S    0.000000  -0.094603  -0.267212   0.000000   0.539001
    4  S  1  S    0.000000   0.072665  -0.255005   0.000000  -1.268669
    5  S  1  X    0.000000   0.000000   0.000000  -0.114530   0.000000
    6  S  1  Y    0.000000   0.000000   0.000000   0.000000   0.000000
    7  S  1  Z    0.000000  -0.030700   0.023615   0.000000   0.003932
    8  S  1  X    0.000000   0.000000   0.000000   0.539753   0.000000
    9  S  1  Y    0.000000   0.000000   0.000000   0.000000   0.000000
   10  S  1  Z    0.000000   0.162310  -0.111809   0.000000  -0.007203
   11  S  1  X    0.000000   0.000000   0.000000  -0.096956   0.000000
   12  S  1  Y    0.000000   0.000000   0.000000   0.000000   0.000000
   13  S  1  Z    0.000000  -0.483237   0.044503   0.000000  -0.184135
   14  S  1 XX    0.000000   0.220994  -0.110875   0.000000  -0.467711
   15  S  1 YY    0.000000  -0.010791   0.049841   0.000000   0.249007
   16  S  1 ZZ    0.000000  -0.210204   0.061035   0.000000   0.218703
   17  S  1 XY    0.552951   0.000000   0.000000   0.000000   0.000000
   18  S  1 XZ    0.000000   0.000000   0.000000  -0.128825   0.000000
   19  S  1 YZ    0.000000   0.000000   0.000000   0.000000   0.000000
   20  O  2  S    0.000000   0.003961  -0.021307  -0.016851   0.020313
   21  O  2  S    0.000000  -0.018864   0.215399   0.197203  -1.061694
   22  O  2  S    0.000000   0.012899  -0.125804  -0.166617   1.302229
   23  O  2  X    0.000000  -0.179937  -0.595942  -0.541772  -0.129222
   24  O  2  Y   -0.554838   0.000000   0.000000   0.000000   0.000000
   25  O  2  Z    0.000000  -0.587331   0.155295   0.247215  -0.001165
   26  O  2  X    0.000000   0.182531   0.826845   0.733782   0.511087
   27  O  2  Y    0.713228   0.000000   0.000000   0.000000   0.000000
   28  O  2  Z    0.000000   0.786653  -0.209726  -0.322349  -0.038159
   29  O  2 XX    0.000000   0.011114  -0.033066  -0.040187  -0.187444
   30  O  2 YY    0.000000  -0.007585   0.017508   0.023631   0.100566
   31  O  2 ZZ    0.000000  -0.003529   0.015558   0.016556   0.086878
   32  O  2 XY   -0.046388   0.000000   0.000000   0.000000   0.000000
   33  O  2 XZ    0.000000  -0.026316   0.011020   0.026744   0.061540
   34  O  2 YZ    0.009325   0.000000   0.000000   0.000000   0.000000
   35  O  3  S    0.000000   0.003961  -0.021307   0.016851   0.020313
   36  O  3  S    0.000000  -0.018864   0.215399  -0.197203  -1.061694
   37  O  3  S    0.000000   0.012899  -0.125804   0.166617   1.302229
   38  O  3  X    0.000000   0.179937   0.595942  -0.541772   0.129222
   39  O  3  Y    0.554838   0.000000   0.000000   0.000000   0.000000
   40  O  3  Z    0.000000  -0.587331   0.155295  -0.247215  -0.001165
   41  O  3  X    0.000000  -0.182531  -0.826845   0.733782  -0.511087
   42  O  3  Y   -0.713228   0.000000   0.000000   0.000000   0.000000
   43  O  3  Z    0.000000   0.786653  -0.209726   0.322349  -0.038159
   44  O  3 XX    0.000000   0.011114  -0.033066   0.040187  -0.187444
   45  O  3 YY    0.000000  -0.007585   0.017508  -0.023631   0.100566
   46  O  3 ZZ    0.000000  -0.003529   0.015558  -0.016556   0.086878
   47  O  3 XY   -0.046388   0.000000   0.000000   0.000000   0.000000
   48  O  3 XZ    0.000000   0.026316  -0.011020   0.026744  -0.061540
   49  O  3 YZ   -0.009325   0.000000   0.000000   0.000000   0.000000

                     36         37         38         39         40
                    1.6565     2.0775     2.0775     2.0778     2.0787
                     B1         B1         A2         B2         A1  
    1  S  1  S    0.000000   0.000000   0.000000   0.000000  -0.000081
    2  S  1  S    0.000000   0.000000   0.000000   0.000000  -0.005774
    3  S  1  S    0.000000   0.000000   0.000000   0.000000  -0.008266
    4  S  1  S    0.000000   0.000000   0.000000   0.000000   0.030544
    5  S  1  X   -0.021934  -0.000981   0.000000   0.000000   0.000000
    6  S  1  Y    0.000000   0.000000   0.000000   0.001925   0.000000
    7  S  1  Z    0.000000   0.000000   0.000000   0.000000  -0.001801
    8  S  1  X    0.006682   0.002353   0.000000   0.000000   0.000000
    9  S  1  Y    0.000000   0.000000   0.000000   0.009917   0.000000
   10  S  1  Z    0.000000   0.000000   0.000000   0.000000  -0.004457
   11  S  1  X    1.369417   0.005866   0.000000   0.000000   0.000000
   12  S  1  Y    0.000000   0.000000   0.000000  -0.071515   0.000000
   13  S  1  Z    0.000000   0.000000   0.000000   0.000000   0.049376
   14  S  1 XX    0.000000   0.000000   0.000000   0.000000   0.001317
   15  S  1 YY    0.000000   0.000000   0.000000   0.000000  -0.034728
   16  S  1 ZZ    0.000000   0.000000   0.000000   0.000000   0.033411
   17  S  1 XY    0.000000   0.000000   0.031332   0.000000   0.000000
   18  S  1 XZ    0.193744  -0.029880   0.000000   0.000000   0.000000
   19  S  1 YZ    0.000000   0.000000   0.000000  -0.043296   0.000000
   20  O  2  S    0.011283   0.000166   0.000000   0.000000   0.000030
   21  O  2  S   -1.212437  -0.002783   0.000000   0.000000   0.017030
   22  O  2  S    1.768087   0.003823   0.000000   0.000000  -0.025540
   23  O  2  X   -0.146817  -0.000715   0.000000   0.000000   0.006848
   24  O  2  Y    0.000000   0.000000  -0.004356  -0.015881   0.000000
   25  O  2  Z    0.052359   0.004518   0.000000   0.000000   0.009948
   26  O  2  X    0.607066   0.000669   0.000000   0.000000  -0.018513
   27  O  2  Y    0.000000   0.000000   0.007038   0.029584   0.000000
   28  O  2  Z   -0.168251  -0.007060   0.000000   0.000000  -0.017945
   29  O  2 XX   -0.156553  -0.051280   0.000000   0.000000  -0.105995
   30  O  2 YY    0.079596   0.599008   0.000000   0.000000   0.590186
   31  O  2 ZZ    0.076957  -0.547728   0.000000   0.000000  -0.484191
   32  O  2 XY    0.000000   0.000000   0.244130   0.459254   0.000000
   33  O  2 XZ    0.035988  -0.243018   0.000000   0.000000  -0.323085
   34  O  2 YZ    0.000000   0.000000   0.663641   0.538683   0.000000
   35  O  3  S   -0.011283  -0.000166   0.000000   0.000000   0.000030
   36  O  3  S    1.212437   0.002783   0.000000   0.000000   0.017030
   37  O  3  S   -1.768087  -0.003823   0.000000   0.000000  -0.025540
   38  O  3  X   -0.146817  -0.000715   0.000000   0.000000  -0.006848
   39  O  3  Y    0.000000   0.000000   0.004356  -0.015881   0.000000
   40  O  3  Z   -0.052359  -0.004518   0.000000   0.000000   0.009948
   41  O  3  X    0.607066   0.000669   0.000000   0.000000   0.018513
   42  O  3  Y    0.000000   0.000000  -0.007038   0.029584   0.000000
   43  O  3  Z    0.168251   0.007060   0.000000   0.000000  -0.017945
   44  O  3 XX    0.156553   0.051280   0.000000   0.000000  -0.105995
   45  O  3 YY   -0.079596  -0.599008   0.000000   0.000000   0.590186
   46  O  3 ZZ   -0.076957   0.547728   0.000000   0.000000  -0.484191
   47  O  3 XY    0.000000   0.000000   0.244130  -0.459254   0.000000
   48  O  3 XZ    0.035988  -0.243018   0.000000   0.000000   0.323085
   49  O  3 YZ    0.000000   0.000000  -0.663641   0.538683   0.000000

                     41         42         43         44         45
                    2.0865     2.0919     2.1124     2.1178     2.2372
                     B2         A1         B1         A2         B1  
    1  S  1  S    0.000000  -0.000081   0.000000   0.000000   0.000000
    2  S  1  S    0.000000   0.013505   0.000000   0.000000   0.000000
    3  S  1  S    0.000000   0.016439   0.000000   0.000000   0.000000
    4  S  1  S    0.000000  -0.070762   0.000000   0.000000   0.000000
    5  S  1  X    0.000000   0.000000   0.022825   0.000000  -0.107681
    6  S  1  Y    0.003542   0.000000   0.000000   0.000000   0.000000
    7  S  1  Z    0.000000   0.005556   0.000000   0.000000   0.000000
    8  S  1  X    0.000000   0.000000  -0.072763   0.000000   0.362714
    9  S  1  Y    0.015603   0.000000   0.000000   0.000000   0.000000
   10  S  1  Z    0.000000   0.011190   0.000000   0.000000   0.000000
   11  S  1  X    0.000000   0.000000  -0.069420   0.000000   0.321074
   12  S  1  Y   -0.118980   0.000000   0.000000   0.000000   0.000000
   13  S  1  Z    0.000000  -0.136873   0.000000   0.000000   0.000000
   14  S  1 XX    0.000000   0.004711   0.000000   0.000000   0.000000
   15  S  1 YY    0.000000   0.020907   0.000000   0.000000   0.000000
   16  S  1 ZZ    0.000000  -0.025618   0.000000   0.000000   0.000000
   17  S  1 XY    0.000000   0.000000   0.000000   0.201323   0.000000
   18  S  1 XZ    0.000000   0.000000   0.156330   0.000000   0.199932
   19  S  1 YZ   -0.017665   0.000000   0.000000   0.000000   0.000000
   20  O  2  S    0.000000   0.000594   0.000167   0.000000  -0.001927
   21  O  2  S    0.000000  -0.041913   0.061887   0.000000  -0.352335
   22  O  2  S    0.000000   0.059427  -0.094043   0.000000   0.528817
   23  O  2  X    0.000000  -0.018063   0.020185   0.000000  -0.103868
   24  O  2  Y   -0.025409   0.000000   0.000000  -0.026890   0.000000
   25  O  2  Z    0.000000  -0.026586  -0.028364   0.000000   0.011666
   26  O  2  X    0.000000   0.045035  -0.048286   0.000000   0.319071
   27  O  2  Y    0.046473   0.000000   0.000000   0.045069   0.000000
   28  O  2  Z    0.000000   0.047294   0.048729   0.000000  -0.044066
   29  O  2 XX    0.000000   0.254265   0.065159   0.000000   0.697466
   30  O  2 YY    0.000000   0.165763   0.181325   0.000000  -0.326345
   31  O  2 ZZ    0.000000  -0.420028  -0.246485   0.000000  -0.371121
   32  O  2 XY    0.541738   0.000000   0.000000   0.664034   0.000000
   33  O  2 XZ    0.000000   0.570036   0.659605   0.000000  -0.076568
   34  O  2 YZ   -0.458165   0.000000   0.000000  -0.244122   0.000000
   35  O  3  S    0.000000   0.000594  -0.000167   0.000000   0.001927
   36  O  3  S    0.000000  -0.041913  -0.061887   0.000000   0.352335
   37  O  3  S    0.000000   0.059427   0.094043   0.000000  -0.528817
   38  O  3  X    0.000000   0.018063   0.020185   0.000000  -0.103868
   39  O  3  Y   -0.025409   0.000000   0.000000   0.026890   0.000000
   40  O  3  Z    0.000000  -0.026586   0.028364   0.000000  -0.011666
   41  O  3  X    0.000000  -0.045035  -0.048286   0.000000   0.319071
   42  O  3  Y    0.046473   0.000000   0.000000  -0.045069   0.000000
   43  O  3  Z    0.000000   0.047294  -0.048729   0.000000   0.044066
   44  O  3 XX    0.000000   0.254265  -0.065159   0.000000  -0.697466
   45  O  3 YY    0.000000   0.165763  -0.181325   0.000000   0.326345
   46  O  3 ZZ    0.000000  -0.420028   0.246485   0.000000   0.371121
   47  O  3 XY   -0.541738   0.000000   0.000000   0.664034   0.000000
   48  O  3 XZ    0.000000  -0.570036   0.659605   0.000000  -0.076568
   49  O  3 YZ   -0.458165   0.000000   0.000000   0.244122   0.000000

                     46
                    2.4359
                     A1  
    1  S  1  S   -0.000933
    2  S  1  S   -0.157619
    3  S  1  S   -0.212212
    4  S  1  S    0.829641
    5  S  1  X    0.000000
    6  S  1  Y    0.000000
    7  S  1  Z   -0.020316
    8  S  1  X    0.000000
    9  S  1  Y    0.000000
   10  S  1  Z    0.071467
   11  S  1  X    0.000000
   12  S  1  Y    0.000000
   13  S  1  Z    0.065171
   14  S  1 XX    0.600657
   15  S  1 YY   -0.311525
   16  S  1 ZZ   -0.289132
   17  S  1 XY    0.000000
   18  S  1 XZ    0.000000
   19  S  1 YZ    0.000000
   20  O  2  S    0.007758
   21  O  2  S    0.406222
   22  O  2  S   -0.617991
   23  O  2  X    0.094608
   24  O  2  Y    0.000000
   25  O  2  Z   -0.019888
   26  O  2  X   -0.420005
   27  O  2  Y    0.000000
   28  O  2  Z    0.079542
   29  O  2 XX   -0.656770
   30  O  2 YY    0.354731
   31  O  2 ZZ    0.302039
   32  O  2 XY    0.000000
   33  O  2 XZ    0.275196
   34  O  2 YZ    0.000000
   35  O  3  S    0.007758
   36  O  3  S    0.406222
   37  O  3  S   -0.617991
   38  O  3  X   -0.094608
   39  O  3  Y    0.000000
   40  O  3  Z   -0.019888
   41  O  3  X    0.420005
   42  O  3  Y    0.000000
   43  O  3  Z    0.079542
   44  O  3 XX   -0.656770
   45  O  3 YY    0.354731
   46  O  3 ZZ    0.302039
   47  O  3 XY    0.000000
   48  O  3 XZ   -0.275196
   49  O  3 YZ    0.000000
 ...... END OF RHF CALCULATION ......
 STEP CPU TIME =     2.75 TOTAL CPU TIME =        2.9 (    0.0 MIN)
 TOTAL WALL CLOCK TIME=        2.9 SECONDS, CPU UTILIZATION IS 100.00%

     ---------------------------------------------------------------------
     PROPERTIES FOR THE PBE      DFT FUNCTIONAL (RHF  TYPE) DENSITY MATRIX
     ---------------------------------------------------------------------

          -----------------
          ENERGY COMPONENTS
          -----------------

         WAVEFUNCTION NORMALIZATION =       1.0000000000

                ONE ELECTRON ENERGY =    -915.2904528033
                TWO ELECTRON ENERGY =     834.9408333473
           NUCLEAR REPULSION ENERGY =      80.3496194560
                                      ------------------
                       TOTAL ENERGY =       0.0000000000

 ELECTRON-ELECTRON POTENTIAL ENERGY =     834.9408333473
  NUCLEUS-ELECTRON POTENTIAL ENERGY =   -1461.9227834086
   NUCLEUS-NUCLEUS POTENTIAL ENERGY =      80.3496194560
                                      ------------------
             TOTAL POTENTIAL ENERGY =    -546.6323306052
               TOTAL KINETIC ENERGY =     546.6323306052
                 VIRIAL RATIO (V/T) =       1.0000000000

          ---------------------------------------
          MULLIKEN AND LOWDIN POPULATION ANALYSES
          ---------------------------------------

     ATOMIC MULLIKEN POPULATION IN EACH MOLECULAR ORBITAL

                      1          2          3          4          5

                  2.000000   2.000000   2.000000   2.000000   2.000000

    1             1.999999   0.000928   0.000255   2.000016   1.999985
    2             0.000000   0.999536   0.999873  -0.000008   0.000008
    3             0.000000   0.999536   0.999873  -0.000008   0.000008

                      6          7          8          9         10

                  2.000000   2.000000   2.000000   2.000000   2.000000

    1             2.000001   1.999997   0.421852   0.123963   1.436058
    2            -0.000001   0.000001   0.789074   0.938019   0.281971
    3            -0.000001   0.000001   0.789074   0.938019   0.281971

                     11         12         13         14         15

                  2.000000   2.000000   2.000000   2.000000   2.000000

    1             0.648554   1.204169   1.201125   0.024690   0.036036
    2             0.675723   0.397916   0.399438   0.987655   0.981982
    3             0.675723   0.397916   0.399438   0.987655   0.981982

                     16

                  2.000000

    1             0.220246
    2             0.889877
    3             0.889877

               ----- POPULATIONS IN EACH AO -----
                             MULLIKEN      LOWDIN
              1  S  1  S      2.00020     1.99617
              2  S  1  S      2.01106     1.97661
              3  S  1  S      1.03884     0.67583
              4  S  1  S      0.93108     0.57919
              5  S  1  X      1.99612     1.95200
              6  S  1  Y      1.99631     1.95605
              7  S  1  Z      1.99640     1.95688
              8  S  1  X      0.61377     0.56714
              9  S  1  Y      0.67627     0.66214
             10  S  1  Z      0.69775     0.68242
             11  S  1  X      0.17200     0.34035
             12  S  1  Y      0.52788     0.57149
             13  S  1  Z      0.51628     0.56509
             14  S  1 XX      0.02322     0.25047
             15  S  1 YY      0.06774     0.28642
             16  S  1 ZZ      0.02469     0.28398
             17  S  1 XY      0.02757     0.02841
             18  S  1 XZ      0.00066     0.03283
             19  S  1 YZ      0.00000     0.00062
             20  O  2  S      1.99802     1.98151
             21  O  2  S      0.86251     0.67599
             22  O  2  S      1.11565     0.62320
             23  O  2  X      0.84981     0.81677
             24  O  2  Y      0.83216     0.80297
             25  O  2  Z      0.96519     0.93540
             26  O  2  X      0.53153     0.59352
             27  O  2  Y      0.55354     0.58598
             28  O  2  Z      0.62628     0.65944
             29  O  2 XX      0.00091     0.21351
             30  O  2 YY      0.00263     0.21463
             31  O  2 ZZ      0.00135     0.21152
             32  O  2 XY      0.00144     0.00164
             33  O  2 XZ      0.00004     0.00183
             34  O  2 YZ      0.00000     0.00005
             35  O  3  S      1.99802     1.98151
             36  O  3  S      0.86251     0.67599
             37  O  3  S      1.11565     0.62320
             38  O  3  X      0.84981     0.81677
             39  O  3  Y      0.83216     0.80297
             40  O  3  Z      0.96519     0.93540
             41  O  3  X      0.53153     0.59352
             42  O  3  Y      0.55354     0.58598
             43  O  3  Z      0.62628     0.65944
             44  O  3 XX      0.00091     0.21351
             45  O  3 YY      0.00263     0.21463
             46  O  3 ZZ      0.00135     0.21152
             47  O  3 XY      0.00144     0.00164
             48  O  3 XZ      0.00004     0.00183
             49  O  3 YZ      0.00000     0.00005

          ----- MULLIKEN ATOMIC OVERLAP POPULATIONS -----
          (OFF-DIAGONAL ELEMENTS NEED TO BE MULTIPLIED BY 2)

             1           2           3

    1   14.9984888
    2    0.1596923   8.1799977
    3    0.1596923   0.0013733   8.1799977

          TOTAL MULLIKEN AND LOWDIN ATOMIC POPULATIONS
       ATOM         MULL.POP.    CHARGE          LOW.POP.     CHARGE
    1 S            15.317873    0.682127        15.364073    0.635927
    2 O             8.341063   -0.341063         8.317964   -0.317964
    3 O             8.341063   -0.341063         8.317964   -0.317964

          MULLIKEN SPHERICAL HARMONIC POPULATIONS
       ATOM           S       P       D      F      G      H      I    TOTAL
    1 S             5.98    9.19    0.14   0.00   0.00   0.00   0.00   15.32
    2 O             3.98    4.36    0.01   0.00   0.00   0.00   0.00    8.34
    3 O             3.98    4.36    0.01   0.00   0.00   0.00   0.00    8.34

          -------------------------------
          BOND ORDER AND VALENCE ANALYSIS     BOND ORDER THRESHOLD=0.050
          -------------------------------

                   BOND                       BOND                       BOND
  ATOM PAIR DIST  ORDER      ATOM PAIR DIST  ORDER      ATOM PAIR DIST  ORDER
    1   2  1.900  1.535        1   3  1.900  1.535        2   3  3.742  0.727

                       TOTAL       BONDED        FREE
      ATOM            VALENCE     VALENCE     VALENCE
    1 S                 3.069       3.069       0.000
    2 O                 2.261       2.261       0.000
    3 O                 2.261       2.261       0.000

          ---------------------
          ELECTROSTATIC MOMENTS
          ---------------------

 POINT   1           X           Y           Z (BOHR)    CHARGE
                 0.000000    0.000000    0.000000        0.00 (A.U.)
         DX          DY          DZ         /D/  (DEBYE)
     0.000000    0.000000   -0.676380    0.676380
 ...... END OF PROPERTY EVALUATION ......
 STEP CPU TIME =     0.00 TOTAL CPU TIME =        2.9 (    0.0 MIN)
 TOTAL WALL CLOCK TIME=        2.9 SECONDS, CPU UTILIZATION IS  99.66%
               580000  WORDS OF DYNAMIC MEMORY USED
 EXECUTION OF GAMESS TERMINATED NORMALLY Thu Feb 26 00:22:19 2015
 DDI: 263624 bytes (0.3 MB / 0 MWords) used by master data server.

 ----------------------------------------
 CPU timing information for all processes
 ========================================
 0: 2.909 + 0.24 = 2.934
 ----------------------------------------
 ddikick.x: exited gracefully.
----- accounting info -----
Files used on the master node dftfe.crc.nd.edu were:
-rw-r--r-- 1 pmehta1 campus   37475 Feb 26 00:22 /tmp/gamess.dat
-rw-r--r-- 1 pmehta1 campus     142 Feb 26 00:22 /tmp/gamess.F05
-rw-r--r-- 1 pmehta1 campus 1800240 Feb 26 00:22 /tmp/gamess.F08
-rw-r--r-- 1 pmehta1 campus 1220440 Feb 26 00:22 /tmp/gamess.F10
Thu Feb 26 00:22:22 EST 2015
0.234u 0.184s 0:06.36 6.4%	0+0k 0+104io 0pf+0w
