----- GAMESS execution script 'rungms' -----
This job is running on host dftfe.crc.nd.edu
under operating system Linux at Thu Feb 26 00:22:01 EST 2015
Available scratch disk space (Kbyte units) at beginning of the job is
Filesystem     1K-blocks     Used Available Use% Mounted on
/dev/sda2      147771864 22817896 117447536  17% /
GAMESS temporary binary files will be written to /tmp
GAMESS supplementary output files will be written to /tmp
Copying input file gamess.inp to your run's scratch directory...

 Distributed Data Interface kickoff program.
 Initiating 1 compute processes on 1 nodes to run the following command:
 /opt/crc/gamess/2012R1/gamess/gamess.00.x gamess 

          ******************************************************
          *         GAMESS VERSION =  1 MAY 2012 (R1)          *
          *             FROM IOWA STATE UNIVERSITY             *
          * M.W.SCHMIDT, K.K.BALDRIDGE, J.A.BOATZ, S.T.ELBERT, *
          *   M.S.GORDON, J.H.JENSEN, S.KOSEKI, N.MATSUNAGA,   *
          *          K.A.NGUYEN, S.J.SU, T.L.WINDUS,           *
          *       TOGETHER WITH M.DUPUIS, J.A.MONTGOMERY       *
          *         J.COMPUT.CHEM.  14, 1347-1363(1993)        *
          **************** 64 BIT LINUX VERSION ****************

  SINCE 1993, STUDENTS AND POSTDOCS WORKING AT IOWA STATE UNIVERSITY
  AND ALSO IN THEIR VARIOUS JOBS AFTER LEAVING ISU HAVE MADE IMPORTANT
  CONTRIBUTIONS TO THE CODE:
     IVANA ADAMOVIC, CHRISTINE AIKENS, YURI ALEXEEV, POOJA ARORA,
     ANDREY ASADCHEV, ROB BELL, PRADIPTA BANDYOPADHYAY, JONATHAN BENTZ,
     BRETT BODE, GALINA CHABAN, WEI CHEN, CHEOL HO CHOI, PAUL DAY,
     ALBERT DEFUSCO, TIM DUDLEY, DMITRI FEDOROV, GRAHAM FLETCHER,
     MARK FREITAG, KURT GLAESEMANN, DAN KEMP, GRANT MERRILL,
     NORIYUKI MINEZAWA, JONATHAN MULLIN, TAKESHI NAGATA,
     SEAN NEDD, HEATHER NETZLOFF, BOSILJKA NJEGIC, RYAN OLSON, MIKE PAK,
     JIM SHOEMAKER, LYUDMILA SLIPCHENKO, SAROM SOK, JIE SONG,
     TETSUYA TAKETSUGU, SIMON WEBB, SOOHAENG YOO, FEDERICO ZAHARIEV

  ADDITIONAL CODE HAS BEEN PROVIDED BY COLLABORATORS IN OTHER GROUPS:
     IOWA STATE UNIVERSITY:
          JOE IVANIC, LAIMUTIS BYTAUTAS, KLAUS RUEDENBERG
     UNIVERSITY OF TOKYO: KIMIHIKO HIRAO, TAKAHITO NAKAJIMA,
          TAKAO TSUNEDA, MUNEAKI KAMIYA, SUSUMU YANAGISAWA,
          KIYOSHI YAGI, MAHITO CHIBA, SEIKEN TOKURA, NAOAKI KAWAKAMI
     UNIVERSITY OF AARHUS: FRANK JENSEN
     UNIVERSITY OF IOWA: VISVALDAS KAIRYS, HUI LI
     NATIONAL INST. OF STANDARDS AND TECHNOLOGY: WALT STEVENS, DAVID GARMER
     UNIVERSITY OF PISA: BENEDETTA MENNUCCI, JACOPO TOMASI
     UNIVERSITY OF MEMPHIS: HENRY KURTZ, PRAKASHAN KORAMBATH
     UNIVERSITY OF ALBERTA: TOBY ZENG, MARIUSZ KLOBUKOWSKI
     UNIVERSITY OF NEW ENGLAND: MARK SPACKMAN
     MIE UNIVERSITY: HIROAKI UMEDA
     MICHIGAN STATE UNIVERSITY:
          KAROL KOWALSKI, MARTA WLOCH, JEFFREY GOUR, JESSE LUTZ, PIOTR PIECUCH
     UNIVERSITY OF SILESIA: MONIKA MUSIAL, STANISLAW KUCHARSKI
     FACULTES UNIVERSITAIRES NOTRE-DAME DE LA PAIX:
          OLIVIER QUINET, BENOIT CHAMPAGNE
     UNIVERSITY OF CALIFORNIA - SANTA BARBARA: BERNARD KIRTMAN
     INSTITUTE FOR MOLECULAR SCIENCE:
          KAZUYA ISHIMURA, MICHIO KATOUDA, AND SHIGERU NAGASE
     UNIVERSITY OF NOTRE DAME: DAN CHIPMAN
     KYUSHU UNIVERSITY:
          HARUYUKI NAKANO,
          FENG LONG GU, JACEK KORCHOWIEC, MARCIN MAKOWSKI, AND YURIKO AOKI,
          HIROTOSHI MORI AND EISAKU MIYOSHI
     PENNSYLVANIA STATE UNIVERSITY:
          TZVETELIN IORDANOV, CHET SWALINA, JONATHAN SKONE,
          SHARON HAMMES-SCHIFFER
     WASEDA UNIVERSITY:
          MASATO KOBAYASHI, TOMOKO AKAMA, TSUGUKI TOUMA,
          TAKESHI YOSHIKAWA, YASUHIRO IKABATA, HIROMI NAKAI
     UNIVERSITY OF NEBRASKA:
          PEIFENG SU, DEJUN SI, NANDUN THELLAMUREGE, YALI WANG, HUI LI
     UNIVERSITY OF ZURICH:
          ROBERTO PEVERATI, KIM BALDRIDGE
     N. COPERNICUS UNIVERSITY AND JACKSON STATE UNIVERSITY:
          MARIA BARYSZ

 EXECUTION OF GAMESS BEGUN Thu Feb 26 00:22:01 2015

            ECHO OF THE FIRST FEW INPUT CARDS -
 INPUT CARD> $BASIS GBASIS=PC1 $END                                                         
 INPUT CARD> $CONTRL COORD=ZMT ISPHER=1 RUNTYP=ENERGY DFTTYP=PBE $END                       
 INPUT CARD>                                                                                
 INPUT CARD> $DATA                                                                          
 INPUT CARD>Title                                                                           
 INPUT CARD>Cnv 2                                                                           
 INPUT CARD>                                                                                
 INPUT CARD>S                                                                               
 INPUT CARD>O 1 1.90                                                                        
 INPUT CARD>O 1 1.90 2 140.0                                                                
 INPUT CARD> $END                                                                           
    1000000 WORDS OF MEMORY AVAILABLE

     BASIS OPTIONS
     -------------
     GBASIS=PC1          IGAUSS=       0      POLAR=NONE    
     NDFUNC=       0     NFFUNC=       0     DIFFSP=       F
     NPFUNC=       0      DIFFS=       F     BASNAM=        


     RUN TITLE
     ---------
 Title                                                                           

 THE POINT GROUP OF THE MOLECULE IS CNV     
 THE ORDER OF THE PRINCIPAL AXIS IS     2

 YOUR FULLY SUBSTITUTED Z-MATRIX IS
 S   
 O      1   1.9000000
 O      1   1.9000000  2  140.0000

 THE MOMENTS OF INERTIA ARE (AMU-ANGSTROM**2)
 IXX=     6.753   IYY=   101.974   IZZ=   108.727

 ATOM      ATOMIC                      COORDINATES (BOHR)
           CHARGE         X                   Y                   Z
 S          16.0     0.0000000000        0.0000000000       -0.6141785283
 O           8.0    -3.3739469753        0.0000000000        0.6138377427
 O           8.0     3.3739469753        0.0000000000        0.6138377427

          INTERNUCLEAR DISTANCES (ANGS.)
          ------------------------------

                1 S          2 O          3 O     

   1 S       0.0000000    1.9000000 *  1.9000000 *
   2 O       1.9000000 *  0.0000000    3.5708320  
   3 O       1.9000000 *  3.5708320    0.0000000  

  * ... LESS THAN  3.000


     ATOMIC BASIS SET
     ----------------
 THE CONTRACTED PRIMITIVE FUNCTIONS HAVE BEEN UNNORMALIZED
 THE CONTRACTED BASIS FUNCTIONS ARE NOW NORMALIZED TO UNITY

  SHELL TYPE  PRIMITIVE        EXPONENT          CONTRACTION COEFFICIENT(S)

 S         

      1   S       1         55510.0000000    0.000587229760
      1   S       2          8326.7000000    0.004532413947
      1   S       3          1895.6000000    0.023265261648
      1   S       4           536.7700000    0.089696133027
      1   S       5           174.6700000    0.254098332277
      1   S       6            62.5780000    0.438665087637
      1   S       7            23.5730000    0.314547135094
      1   S       8             5.8908000    0.032727897102

      2   S       9          8326.7000000   -0.000019755715
      2   S      10          1895.6000000   -0.000043822381
      2   S      11           536.7700000   -0.001730264906
      2   S      12           174.6700000   -0.009381263460
      2   S      13            62.5780000   -0.064050766303
      2   S      14            23.5730000   -0.082478179196
      2   S      15             5.8908000    0.478342956889
      2   S      16             2.1852000    0.626896670208

      3   S      17          1895.6000000    0.000016227260
      3   S      18           536.7700000    0.000191135619
      3   S      19           174.6700000    0.001952069674
      3   S      20            62.5780000    0.010578701087
      3   S      21            23.5730000    0.022164934551
      3   S      22             5.8908000   -0.184968323118
      3   S      23             2.1852000   -0.480920750976
      3   S      24             0.4528200    1.243822243872

      4   S      25             0.1620200    1.000000000000

      5   P      26           395.4500000    0.004642761329
      5   P      27            92.8340000    0.036023396489
      5   P      28            29.2660000    0.149058869978
      5   P      29            10.5950000    0.360033266263
      5   P      30             4.0272000    0.455756476221
      5   P      31             1.5484000    0.206167664178

      6   P      32            92.8340000    0.000169901442
      6   P      33            29.2660000   -0.002541839934
      6   P      34            10.5950000   -0.007867614595
      6   P      35             4.0272000   -0.037231009184
      6   P      36             1.5484000    0.161417246830
      6   P      37             0.4613400    0.902230419976

      7   P      38             0.1313100    1.000000000000

      8   D      39             0.5500000    1.000000000000

 O         

     15   S      40          2306.7000000    0.005424388755
     15   S      41           347.1500000    0.040474749465
     15   S      42            78.8900000    0.180219634554
     15   S      43            21.8760000    0.462370311787
     15   S      44             6.6646000    0.454888396263

     16   S      45           347.1500000   -0.000655003786
     16   S      46            78.8900000   -0.005362052952
     16   S      47            21.8760000   -0.074902158894
     16   S      48             6.6646000   -0.181442579655
     16   S      49             1.0669000    1.102006874042

     17   S      50             0.3070000    1.000000000000

     18   P      51            17.0220000    0.068979967443
     18   P      52             3.6838000    0.351985516325
     18   P      53             0.9923400    0.724036547822

     19   P      54             0.2448700    1.000000000000

     20   D      55             1.0000000    1.000000000000

 TOTAL NUMBER OF BASIS SET SHELLS             =   20
 NUMBER OF CARTESIAN GAUSSIAN BASIS FUNCTIONS =   49
 NOTE: THIS RUN WILL RESTRICT THE MO VARIATION SPACE TO SPHERICAL HARMONICS.
 THE NUMBER OF ORBITALS KEPT IN THE VARIATIONAL SPACE WILL BE PRINTED LATER.
 NUMBER OF ELECTRONS                          =   32
 CHARGE OF MOLECULE                           =    0
 SPIN MULTIPLICITY                            =    1
 NUMBER OF OCCUPIED ORBITALS (ALPHA)          =   16
 NUMBER OF OCCUPIED ORBITALS (BETA )          =   16
 TOTAL NUMBER OF ATOMS                        =    3
 THE NUCLEAR REPULSION ENERGY IS       80.7841121728

     LEBEDEV GRID-BASED DFT OPTIONS
     ------------------------------
     DFTTYP=PBE     
     NRAD  =      96     NLEB  =     302
     NRAD0 =      24     NLEB0 =     110
     SWOFF =    5.00E-03 (PURE SCF -> DFT)
     SWITCH=    3.00E-04 (COARSE -> TIGHT GRID)
     THRESH=    0.00E+00 GTHRE=    1.00E+00

 GRIMME'S EMPIRICAL DISPERSION CORRECTION= F

     $CONTRL OPTIONS
     ---------------
 SCFTYP=RHF          RUNTYP=ENERGY       EXETYP=RUN     
 MPLEVL=       0     CITYP =NONE         CCTYP =NONE         VBTYP =NONE    
 DFTTYP=PBE          TDDFT =NONE    
 MULT  =       1     ICHARG=       0     NZVAR =       0     COORD =ZMT     
 PP    =NONE         RELWFN=NONE         LOCAL =NONE         NUMGRD=       F
 ISPHER=       1     NOSYM =       0     MAXIT =      30     UNITS =ANGS    
 PLTORB=       F     MOLPLT=       F     AIMPAC=       F     FRIEND=        
 NPRINT=       7     IREST =       0     GEOM  =INPUT   
 NORMF =       0     NORMP =       0     ITOL  =      20     ICUT  =       9
 INTTYP=BEST         GRDTYP=BEST         QMTTOL= 1.0E-06

     $SYSTEM OPTIONS
     ---------------
  REPLICATED MEMORY=     1000000 WORDS (ON EVERY NODE).
 DISTRIBUTED MEMDDI=           0 MILLION WORDS IN AGGREGATE,
 MEMDDI DISTRIBUTED OVER   1 PROCESSORS IS           0 WORDS/PROCESSOR.
 TOTAL MEMORY REQUESTED ON EACH PROCESSOR=     1000000 WORDS.
 TIMLIM=      525600.00 MINUTES, OR     365.0 DAYS.
 PARALL= F  BALTYP=  DLB     KDIAG=    0  COREFL= F
 MXSEQ2=     300 MXSEQ3=     150

          ----------------
          PROPERTIES INPUT
          ----------------

     MOMENTS            FIELD           POTENTIAL          DENSITY
 IEMOM =       1   IEFLD =       0   IEPOT =       0   IEDEN =       0
 WHERE =COMASS     WHERE =NUCLEI     WHERE =NUCLEI     WHERE =NUCLEI  
 OUTPUT=BOTH       OUTPUT=BOTH       OUTPUT=BOTH       OUTPUT=BOTH    
 IEMINT=       0   IEFINT=       0                     IEDINT=       0
                                                       MORB  =       0
          EXTRAPOLATION IN EFFECT
          DIIS IN EFFECT
 ORBITAL PRINTING OPTION: NPREO=     1    49     2     1

     -------------------------------
     INTEGRAL TRANSFORMATION OPTIONS
     -------------------------------
     NWORD  =            0
     CUTOFF = 1.0E-09     MPTRAN =       0
     DIRTRF =       F     AOINTS =DUP     

          ----------------------
          INTEGRAL INPUT OPTIONS
          ----------------------
 NOPK  =       1 NORDER=       0 SCHWRZ=       F

   --- ENCODED Z MATRIX ---
 COORD  TYPE   I   J   K   L   M   N
    1      1    3   1
    2      1    2   1
    3      2    2   1   3

 THE DETERMINANT OF THE G MATRIX IS 10**(    -4)

 THE DETERMINANT OF THE G MATRIX IS 10**(    -4)
 * * * WARNING * * *
 YOUR B MATRIX HAS A SMALL DETERMINANT.
 THIS SUGGESTS YOU MAY HAVE BADLY CHOSEN COORDINATES.

     ------------------------------------------
     THE POINT GROUP IS CNV, NAXIS= 2, ORDER= 4
     ------------------------------------------

 -- VARIATIONAL SPACE WILL BE RESTRICTED TO PURE SPHERICAL HARMONICS ONLY --
 AFTER EXCLUDING CONTAMINANT COMBINATIONS FROM THE CARTESIAN GAUSSIAN BASIS
 SET, THE NUMBER OF SPHERICAL HARMONICS KEPT IN THE VARIATION SPACE IS   46

     DIMENSIONS OF THE SYMMETRY SUBSPACES ARE
 A1  =   19     A2  =    5     B1  =   14     B2  =    8

 ..... DONE SETTING UP THE RUN .....
 STEP CPU TIME =     0.01 TOTAL CPU TIME =        0.0 (    0.0 MIN)
 TOTAL WALL CLOCK TIME=        0.0 SECONDS, CPU UTILIZATION IS  50.00%

          ********************
          1 ELECTRON INTEGRALS
          ********************
 ...... END OF ONE-ELECTRON INTEGRALS ......
 STEP CPU TIME =     0.00 TOTAL CPU TIME =        0.0 (    0.0 MIN)
 TOTAL WALL CLOCK TIME=        0.0 SECONDS, CPU UTILIZATION IS  33.33%

          -------------
          GUESS OPTIONS
          -------------
          GUESS =HUCKEL            NORB  =       0          NORDER=       0
          MIX   =       F          PRTMO =       F          PUNMO =       F
          TOLZ  = 1.0E-08          TOLE  = 1.0E-05
          SYMDEN=       F          PURIFY=       F

 INITIAL GUESS ORBITALS GENERATED BY HUCKEL   ROUTINE.
 HUCKEL GUESS REQUIRES     21583 WORDS.

 STATISTICS FOR GENERATION OF SYMMETRY ORBITAL -Q- MATRIX
 NUMBER OF CARTESIAN ATOMIC ORBITALS=         49
 NUMBER OF SPHERICAL CONTAMINANTS DROPPED=     3
 NUMBER OF LINEARLY DEPENDENT MOS DROPPED=     0
 TOTAL NUMBER OF MOS IN VARIATION SPACE=      46

 SYMMETRIES FOR INITIAL GUESS ORBITALS FOLLOW.   BOTH SET(S).
    16 ORBITALS ARE OCCUPIED (    7 CORE ORBITALS).
     8=?B1      9=?A1     10=?A1     11=B1      12=B2      13=A1      14=A2  
    15=B1      16=A1      17=B2      18=A1      19=B1      20=A1      21=A1  
    22=A1      23=A1      24=A1      25=A1      26=A1  
 ...... END OF INITIAL ORBITAL SELECTION ......
 STEP CPU TIME =     0.01 TOTAL CPU TIME =        0.0 (    0.0 MIN)
 TOTAL WALL CLOCK TIME=        0.0 SECONDS, CPU UTILIZATION IS  66.67%

                    ----------------------
                    AO INTEGRAL TECHNOLOGY
                    ----------------------
     S,P,L SHELL ROTATED AXIS INTEGRALS, REPROGRAMMED BY
        KAZUYA ISHIMURA (IMS) AND JOSE SIERRA (SYNSTAR).
     S,P,D,L SHELL ROTATED AXIS INTEGRALS PROGRAMMED BY
        KAZUYA ISHIMURA (INSTITUTE FOR MOLECULAR SCIENCE).
     S,P,D,F,G SHELL TO TOTAL QUARTET ANGULAR MOMENTUM SUM 5,
        ERIC PROGRAM BY GRAHAM FLETCHER (ELORET AND NASA ADVANCED
        SUPERCOMPUTING DIVISION, AMES RESEARCH CENTER).
     S,P,D,F,G,L SHELL GENERAL RYS QUADRATURE PROGRAMMED BY
        MICHEL DUPUIS (PACIFIC NORTHWEST NATIONAL LABORATORY).

          --------------------
          2 ELECTRON INTEGRALS
          --------------------

 THE -PK- OPTION IS OFF, THE INTEGRALS ARE NOT IN SUPERMATRIX FORM.
 STORING   15000 INTEGRALS/RECORD ON DISK, USING 12 BYTES/INTEGRAL.
 TWO ELECTRON INTEGRAL EVALUATION REQUIRES   90606 WORDS OF MEMORY.
 II,JST,KST,LST =  1  1  1  1 NREC =         1 INTLOC =    1
 II,JST,KST,LST =  2  1  1  1 NREC =         1 INTLOC =    2
 II,JST,KST,LST =  3  1  1  1 NREC =         1 INTLOC =    7
 II,JST,KST,LST =  4  1  1  1 NREC =         1 INTLOC =   22
 II,JST,KST,LST =  5  1  1  1 NREC =         1 INTLOC =   56
 II,JST,KST,LST =  6  1  1  1 NREC =         1 INTLOC =  125
 II,JST,KST,LST =  7  1  1  1 NREC =         1 INTLOC =  329
 II,JST,KST,LST =  8  1  1  1 NREC =         1 INTLOC =  776
 II,JST,KST,LST =  9  1  1  1 NREC =         1 INTLOC = 2864
 II,JST,KST,LST = 10  1  1  1 NREC =         1 INTLOC = 2864
 II,JST,KST,LST = 11  1  1  1 NREC =         1 INTLOC = 2864
 II,JST,KST,LST = 12  1  1  1 NREC =         1 INTLOC = 2864
 II,JST,KST,LST = 13  1  1  1 NREC =         1 INTLOC = 2864
 II,JST,KST,LST = 14  1  1  1 NREC =         1 INTLOC = 2864
 II,JST,KST,LST = 15  1  1  1 NREC =         1 INTLOC = 2864
 II,JST,KST,LST = 16  1  1  1 NREC =         1 INTLOC = 4764
 II,JST,KST,LST = 17  1  1  1 NREC =         1 INTLOC = 7736
 II,JST,KST,LST = 18  1  1  1 NREC =         1 INTLOC =12015
 II,JST,KST,LST = 19  1  1  1 NREC =         2 INTLOC =12232
 II,JST,KST,LST = 20  1  1  1 NREC =         4 INTLOC =11676
 TOTAL NUMBER OF NONZERO TWO-ELECTRON INTEGRALS =              147348
         10 INTEGRAL RECORDS WERE STORED ON DISK FILE  8.
  ...... END OF TWO-ELECTRON INTEGRALS .....
 STEP CPU TIME =     0.15 TOTAL CPU TIME =        0.2 (    0.0 MIN)
 TOTAL WALL CLOCK TIME=        0.2 SECONDS, CPU UTILIZATION IS  94.44%

          --------------------------
               R-PBE SCF CALCULATION
          --------------------------

     NUCLEAR ENERGY =        80.7841121728
     MAXIT =   30     NPUNCH=    2
     EXTRAP=T  DAMP=F  SHIFT=F  RSTRCT=F  DIIS=T  DEM=F  SOSCF=F
         DENSITY MATRIX CONVERGENCE THRESHOLD=  1.00E-05
     COARSE -> FINE DFT GRID SWITCH THRESHOLD=  3.00E-04 (SWITCH IN $DFT)
                   HF -> DFT SWITCH THRESHOLD=  5.00E-03 (SWOFF IN $DFT)
     MEMORY REQUIRED FOR RHF ITERS=    183108 WORDS.

 DFT CODE IS SWITCHING FROM THE FINE GRID NRAD= 96,  NLEB=  302
                      TO THE COARSE GRID NRAD0= 24, NLEB0=  110

     EXCHANGE FUNCTIONAL   =PBE       
     CORRELATION FUNCTIONAL=PBE       
     DFT THRESHOLD         =.460E-07
     GRID CHANGE THRESHOLD =.300E-03
 FOR AN EULER-MACLAURIN QUADRATURE USING  96 RADIAL POINTS:
 SMALLEST GAUSSIAN PRIMITIVE EXPONENT=        0.1313100000 OF TYPE -P-
 ON ATOM NUMBER   1 HAS RADIAL NORMALIZATION=  1.000000
  LARGEST GAUSSIAN PRIMITIVE EXPONENT=    55510.0000000000 OF TYPE -S-
 ON ATOM NUMBER   1 HAS RADIAL NORMALIZATION=  0.999999
 DFT IS SWITCHED OFF, PERFORMING PURE SCF UNTIL SWOFF THRESHOLD IS REACHED.

 ITER EX DEM     TOTAL ENERGY        E CHANGE  DENSITY CHANGE    DIIS ERROR
   1  0  0     -545.6730114193  -545.6730114193   0.719095693   0.919826498
   2  1  0     -545.5874759853     0.0855354340   0.955020986   0.724786593
   3  2  0     -544.8264861666     0.7609898187   1.252553751   0.758657555
   4  3  0     -542.4923236555     2.3341625111   1.334842570   1.525817057
   5  0  0     -542.1435767496     0.3487469060   0.789176846   1.087257553
          * * *   INITIATING DIIS PROCEDURE   * * *
   6  1  0     -546.5950231574    -4.4514464079   0.503385036   0.211692386
   7  2  0     -546.4210891092     0.1739340482   0.281388131   0.388154312
   8  3  0     -546.8101314329    -0.3890423237   0.040014068   0.039033019
   9  4  0     -546.8226699459    -0.0125385131   0.047544246   0.021132514
  10  5  0     -546.8290808661    -0.0064109202   0.032648712   0.011800334
  11  6  0     -546.8321835917    -0.0031027256   0.046924545   0.010607704
  12  7  0     -546.8351365872    -0.0029529956   0.035154621   0.005536006
  13  8  0     -546.8359702622    -0.0008336750   0.002665479   0.001311704
 CONVERGED TO SWOFF, SO DFT CALCULATION IS NOW SWITCHED ON.
          * * *   INITIATING DIIS PROCEDURE   * * *
  14  9  0     -548.0087382386    -1.1727679764   0.607907022   0.100891060
  15 10  0     -547.9944467701     0.0142914685   0.448030322   0.203705394
  16 11  0     -547.9269036757     0.0675430945   0.177115977   0.313195948
  17 12  0     -548.1252660630    -0.1983623873   0.023141802   0.018110261
  18 13  0     -548.1267274411    -0.0014613780   0.005394061   0.007764080
  19 14  0     -548.1268629384    -0.0001354973   0.000751055   0.000757200
  20 15  0     -548.1268643121    -0.0000013738   0.000447671   0.000461291
  21 16  0     -548.1268648213    -0.0000005092   0.000045724   0.000035918
 DFT CODE IS SWITCHING BACK TO THE FINE GRID
          * * *   INITIATING DIIS PROCEDURE   * * *
  22 17  0     -548.1076451908     0.0192196305   0.008931992   0.007374602
  23 18  0     -548.1077544711    -0.0001092803   0.012463583   0.004304837
  24 19  0     -548.1073593463     0.0003951248   0.012837730   0.014866484
  25 20  0     -548.1077933693    -0.0004340230   0.002008699   0.001746058
  26 21  0     -548.1078040164    -0.0000106471   0.000102153   0.000110938
  27 22  0     -548.1078040785    -0.0000000620   0.000013368   0.000010432
  28 23  0     -548.1078040788    -0.0000000004   0.000005289   0.000002394
  29 24  0     -548.1078040789     0.0000000000   0.000001244   0.000001243

          -----------------
          DENSITY CONVERGED
          -----------------
     TIME TO FORM FOCK OPERATORS=       4.1 SECONDS (       0.1 SEC/ITER)
     TIME TO SOLVE SCF EQUATIONS=       0.0 SECONDS (       0.0 SEC/ITER)

 FINAL R-PBE ENERGY IS     -548.1078040789 AFTER  29 ITERATIONS
 DFT EXCHANGE + CORRELATION ENERGY =       -42.1127607961
 TOTAL ELECTRON NUMBER             =        32.0000007477

          ------------
          EIGENVECTORS
          ------------

                      1          2          3          4          5
                  -88.2249   -18.8433   -18.8433    -7.8444    -5.8659
                     A1         B1         A1         A1         B1  
    1  S  1  S    1.002977   0.000000  -0.000058  -0.274139   0.000000
    2  S  1  S   -0.010272   0.000000  -0.000905   1.039580   0.000000
    3  S  1  S    0.001776   0.000000  -0.001734   0.040308   0.000000
    4  S  1  S   -0.000986   0.000000   0.005234  -0.012677   0.000000
    5  S  1  X    0.000000   0.000113   0.000000   0.000000   0.996919
    6  S  1  Y    0.000000   0.000000   0.000000   0.000000   0.000000
    7  S  1  Z    0.000052   0.000000  -0.000047   0.007752   0.000000
    8  S  1  X    0.000000  -0.000309   0.000000   0.000000   0.008820
    9  S  1  Y    0.000000   0.000000   0.000000   0.000000   0.000000
   10  S  1  Z   -0.000004   0.000000   0.000170   0.000440   0.000000
   11  S  1  X    0.000000  -0.005352   0.000000   0.000000  -0.000051
   12  S  1  Y    0.000000   0.000000   0.000000   0.000000   0.000000
   13  S  1  Z   -0.000044   0.000000   0.001539  -0.000507   0.000000
   14  S  1 XX   -0.000023   0.000000   0.001347   0.000086   0.000000
   15  S  1 YY    0.000015   0.000000  -0.000849  -0.000011   0.000000
   16  S  1 ZZ    0.000008   0.000000  -0.000498  -0.000075   0.000000
   17  S  1 XY    0.000000   0.000000   0.000000   0.000000   0.000000
   18  S  1 XZ    0.000000  -0.001152   0.000000   0.000000   0.000438
   19  S  1 YZ    0.000000   0.000000   0.000000   0.000000   0.000000
   20  O  2  S   -0.000002   0.703248   0.703210   0.000002   0.000015
   21  O  2  S   -0.000018   0.025074   0.024578  -0.000034   0.000028
   22  O  2  S    0.000107  -0.010709  -0.009154   0.000851   0.000060
   23  O  2  X    0.000012   0.000680   0.000726   0.000050   0.000045
   24  O  2  Y    0.000000   0.000000   0.000000   0.000000   0.000000
   25  O  2  Z   -0.000008  -0.000345  -0.000165  -0.000049  -0.000026
   26  O  2  X    0.000018  -0.002170  -0.002053  -0.000055   0.000001
   27  O  2  Y    0.000000   0.000000   0.000000   0.000000   0.000000
   28  O  2  Z    0.000005   0.001224   0.000394   0.000147   0.000020
   29  O  2 XX   -0.000026  -0.000178  -0.000278  -0.000425  -0.000042
   30  O  2 YY    0.000017   0.000140   0.000176   0.000264   0.000027
   31  O  2 ZZ    0.000010   0.000037   0.000101   0.000161   0.000015
   32  O  2 XY    0.000000   0.000000   0.000000   0.000000   0.000000
   33  O  2 XZ    0.000020   0.000187   0.000158   0.000307   0.000033
   34  O  2 YZ    0.000000   0.000000   0.000000   0.000000   0.000000
   35  O  3  S   -0.000002  -0.703248   0.703210   0.000002  -0.000015
   36  O  3  S   -0.000018  -0.025074   0.024578  -0.000034  -0.000028
   37  O  3  S    0.000107   0.010709  -0.009154   0.000851  -0.000060
   38  O  3  X   -0.000012   0.000680  -0.000726  -0.000050   0.000045
   39  O  3  Y    0.000000   0.000000   0.000000   0.000000   0.000000
   40  O  3  Z   -0.000008   0.000345  -0.000165  -0.000049   0.000026
   41  O  3  X   -0.000018  -0.002170   0.002053   0.000055   0.000001
   42  O  3  Y    0.000000   0.000000   0.000000   0.000000   0.000000
   43  O  3  Z    0.000005  -0.001224   0.000394   0.000147  -0.000020
   44  O  3 XX   -0.000026   0.000178  -0.000278  -0.000425   0.000042
   45  O  3 YY    0.000017  -0.000140   0.000176   0.000264  -0.000027
   46  O  3 ZZ    0.000010  -0.000037   0.000101   0.000161  -0.000015
   47  O  3 XY    0.000000   0.000000   0.000000   0.000000   0.000000
   48  O  3 XZ   -0.000020   0.000187  -0.000158  -0.000307   0.000033
   49  O  3 YZ    0.000000   0.000000   0.000000   0.000000   0.000000

                      6          7          8          9         10
                   -5.8629    -5.8618    -0.9029    -0.8770    -0.6719
                     B2         A1         A1         B1         A1  
    1  S  1  S    0.000000   0.002119   0.036920   0.000000   0.077957
    2  S  1  S    0.000000  -0.008151  -0.110058   0.000000  -0.224814
    3  S  1  S    0.000000  -0.000177   0.215641   0.000000   0.481735
    4  S  1  S    0.000000  -0.000104   0.182589   0.000000   0.463941
    5  S  1  X    0.000000   0.000000   0.000000   0.060698   0.000000
    6  S  1  Y    0.996958   0.000000   0.000000   0.000000   0.000000
    7  S  1  Z    0.000000   0.996949  -0.022026   0.000000   0.002878
    8  S  1  X    0.000000   0.000000   0.000000  -0.123731   0.000000
    9  S  1  Y    0.008734   0.000000   0.000000   0.000000   0.000000
   10  S  1  Z    0.000000   0.008661   0.046176   0.000000  -0.001979
   11  S  1  X    0.000000   0.000000   0.000000  -0.032147   0.000000
   12  S  1  Y   -0.000145   0.000000   0.000000   0.000000   0.000000
   13  S  1  Z    0.000000  -0.000151   0.011758   0.000000  -0.012105
   14  S  1 XX    0.000000  -0.000275   0.029035   0.000000  -0.007938
   15  S  1 YY    0.000000  -0.000198  -0.017748   0.000000   0.005870
   16  S  1 ZZ    0.000000   0.000473  -0.011287   0.000000   0.002067
   17  S  1 XY    0.000000   0.000000   0.000000   0.000000   0.000000
   18  S  1 XZ    0.000000   0.000000   0.000000  -0.022541   0.000000
   19  S  1 YZ    0.000390   0.000000   0.000000   0.000000   0.000000
   20  O  2  S    0.000000  -0.000011  -0.139399  -0.155950   0.085137
   21  O  2  S    0.000000  -0.000071   0.281663   0.316167  -0.178764
   22  O  2  S    0.000000   0.000111   0.353330   0.404257  -0.260155
   23  O  2  X    0.000000  -0.000022   0.056763   0.047831   0.079454
   24  O  2  Y    0.000003   0.000000   0.000000   0.000000   0.000000
   25  O  2  Z    0.000000   0.000015  -0.019574  -0.017744  -0.026895
   26  O  2  X    0.000000   0.000084   0.030379   0.029958   0.036507
   27  O  2  Y   -0.000041   0.000000   0.000000   0.000000   0.000000
   28  O  2  Z    0.000000  -0.000085  -0.011319  -0.011064  -0.009646
   29  O  2 XX    0.000000   0.000031   0.008034   0.007132   0.004708
   30  O  2 YY    0.000000  -0.000028  -0.002998  -0.002271  -0.003945
   31  O  2 ZZ    0.000000  -0.000003  -0.005037  -0.004861  -0.000763
   32  O  2 XY   -0.000027   0.000000   0.000000   0.000000   0.000000
   33  O  2 XZ    0.000000  -0.000058  -0.003851  -0.003355  -0.003819
   34  O  2 YZ    0.000008   0.000000   0.000000   0.000000   0.000000
   35  O  3  S    0.000000  -0.000011  -0.139399   0.155950   0.085137
   36  O  3  S    0.000000  -0.000071   0.281663  -0.316167  -0.178764
   37  O  3  S    0.000000   0.000111   0.353330  -0.404257  -0.260155
   38  O  3  X    0.000000   0.000022  -0.056763   0.047831  -0.079454
   39  O  3  Y    0.000003   0.000000   0.000000   0.000000   0.000000
   40  O  3  Z    0.000000   0.000015  -0.019574   0.017744  -0.026895
   41  O  3  X    0.000000  -0.000084  -0.030379   0.029958  -0.036507
   42  O  3  Y   -0.000041   0.000000   0.000000   0.000000   0.000000
   43  O  3  Z    0.000000  -0.000085  -0.011319   0.011064  -0.009646
   44  O  3 XX    0.000000   0.000031   0.008034  -0.007132   0.004708
   45  O  3 YY    0.000000  -0.000028  -0.002998   0.002271  -0.003945
   46  O  3 ZZ    0.000000  -0.000003  -0.005037   0.004861  -0.000763
   47  O  3 XY    0.000027   0.000000   0.000000   0.000000   0.000000
   48  O  3 XZ    0.000000   0.000058   0.003851  -0.003355   0.003819
   49  O  3 YZ    0.000008   0.000000   0.000000   0.000000   0.000000

                     11         12         13         14         15
                   -0.4243    -0.3765    -0.3711    -0.3081    -0.2985
                     B1         A1         B2         A2         B1  
    1  S  1  S    0.000000  -0.010506   0.000000   0.000000   0.000000
    2  S  1  S    0.000000   0.037762   0.000000   0.000000   0.000000
    3  S  1  S    0.000000  -0.057210   0.000000   0.000000   0.000000
    4  S  1  S    0.000000  -0.140322   0.000000   0.000000   0.000000
    5  S  1  X   -0.186031   0.000000   0.000000   0.000000  -0.021374
    6  S  1  Y    0.000000   0.000000  -0.213325   0.000000   0.000000
    7  S  1  Z    0.000000  -0.213576   0.000000   0.000000   0.000000
    8  S  1  X    0.438639   0.000000   0.000000   0.000000   0.046772
    9  S  1  Y    0.000000   0.000000   0.503776   0.000000   0.000000
   10  S  1  Z    0.000000   0.503446   0.000000   0.000000   0.000000
   11  S  1  X    0.152839   0.000000   0.000000   0.000000   0.091720
   12  S  1  Y    0.000000   0.000000   0.346598   0.000000   0.000000
   13  S  1  Z    0.000000   0.323065   0.000000   0.000000   0.000000
   14  S  1 XX    0.000000   0.006744   0.000000   0.000000   0.000000
   15  S  1 YY    0.000000  -0.019438   0.000000   0.000000   0.000000
   16  S  1 ZZ    0.000000   0.012694   0.000000   0.000000   0.000000
   17  S  1 XY    0.000000   0.000000   0.000000  -0.063359   0.000000
   18  S  1 XZ    0.027932   0.000000   0.000000   0.000000  -0.059253
   19  S  1 YZ    0.000000   0.000000   0.018717   0.000000   0.000000
   20  O  2  S   -0.045935   0.013885   0.000000   0.000000  -0.003295
   21  O  2  S    0.102605  -0.028558   0.000000   0.000000   0.001579
   22  O  2  S    0.159119  -0.058191   0.000000   0.000000   0.037716
   23  O  2  X   -0.324009   0.248729   0.000000   0.000000   0.214517
   24  O  2  Y    0.000000   0.000000   0.281703   0.476753   0.000000
   25  O  2  Z    0.128490   0.142912   0.000000   0.000000   0.422333
   26  O  2  X   -0.206619   0.159223   0.000000   0.000000   0.161576
   27  O  2  Y    0.000000   0.000000   0.178544   0.336153   0.000000
   28  O  2  Z    0.084103   0.090489   0.000000   0.000000   0.292121
   29  O  2 XX   -0.010985   0.010682   0.000000   0.000000   0.006777
   30  O  2 YY    0.007854  -0.003401   0.000000   0.000000  -0.000276
   31  O  2 ZZ    0.003131  -0.007281   0.000000   0.000000  -0.006501
   32  O  2 XY    0.000000   0.000000   0.010996   0.010022   0.000000
   33  O  2 XZ    0.009793   0.003967   0.000000   0.000000   0.007364
   34  O  2 YZ    0.000000   0.000000  -0.003978  -0.003973   0.000000
   35  O  3  S    0.045935   0.013885   0.000000   0.000000   0.003295
   36  O  3  S   -0.102605  -0.028558   0.000000   0.000000  -0.001579
   37  O  3  S   -0.159119  -0.058191   0.000000   0.000000  -0.037716
   38  O  3  X   -0.324009  -0.248729   0.000000   0.000000   0.214517
   39  O  3  Y    0.000000   0.000000   0.281703  -0.476753   0.000000
   40  O  3  Z   -0.128490   0.142912   0.000000   0.000000  -0.422333
   41  O  3  X   -0.206619  -0.159223   0.000000   0.000000   0.161576
   42  O  3  Y    0.000000   0.000000   0.178544  -0.336153   0.000000
   43  O  3  Z   -0.084103   0.090489   0.000000   0.000000  -0.292121
   44  O  3 XX    0.010985   0.010682   0.000000   0.000000  -0.006777
   45  O  3 YY   -0.007854  -0.003401   0.000000   0.000000   0.000276
   46  O  3 ZZ   -0.003131  -0.007281   0.000000   0.000000   0.006501
   47  O  3 XY    0.000000   0.000000  -0.010996   0.010022   0.000000
   48  O  3 XZ    0.009793  -0.003967   0.000000   0.000000   0.007364
   49  O  3 YZ    0.000000   0.000000  -0.003978   0.003973   0.000000

                     16         17         18         19         20
                   -0.2856    -0.2487    -0.2103    -0.0869     0.3238
                     A1         B2         A1         B1         B1  
    1  S  1  S    0.018278   0.000000   0.019114   0.000000   0.000000
    2  S  1  S   -0.066496   0.000000  -0.052938   0.000000   0.000000
    3  S  1  S    0.100967   0.000000   0.129582   0.000000   0.000000
    4  S  1  S    0.274930   0.000000   0.223561   0.000000   0.000000
    5  S  1  X    0.000000   0.000000   0.000000  -0.238449   0.242934
    6  S  1  Y    0.000000  -0.193872   0.000000   0.000000   0.000000
    7  S  1  Z    0.037442   0.000000  -0.191798   0.000000   0.000000
    8  S  1  X    0.000000   0.000000   0.000000   0.612202  -0.970131
    9  S  1  Y    0.000000   0.480053   0.000000   0.000000   0.000000
   10  S  1  Z   -0.093772   0.000000   0.479679   0.000000   0.000000
   11  S  1  X    0.000000   0.000000   0.000000   0.672137   1.550802
   12  S  1  Y    0.000000   0.334248   0.000000   0.000000   0.000000
   13  S  1  Z   -0.006052   0.000000   0.386199   0.000000   0.000000
   14  S  1 XX   -0.094113   0.000000  -0.064280   0.000000   0.000000
   15  S  1 YY    0.041462   0.000000   0.049092   0.000000   0.000000
   16  S  1 ZZ    0.052651   0.000000   0.015188   0.000000   0.000000
   17  S  1 XY    0.000000   0.000000   0.000000   0.000000   0.000000
   18  S  1 XZ    0.000000   0.000000   0.000000  -0.092556  -0.267593
   19  S  1 YZ    0.000000  -0.015205   0.000000   0.000000   0.000000
   20  O  2  S   -0.001441   0.000000   0.015220  -0.041422  -0.023721
   21  O  2  S    0.007661   0.000000  -0.030952   0.080672  -0.009249
   22  O  2  S   -0.021176   0.000000  -0.096202   0.292504   0.497887
   23  O  2  X   -0.198103   0.000000  -0.377274   0.295826  -0.220643
   24  O  2  Y    0.000000  -0.403666   0.000000   0.000000   0.000000
   25  O  2  Z    0.431463   0.000000  -0.155965  -0.219657  -0.054876
   26  O  2  X   -0.146852   0.000000  -0.284891   0.286011   0.286186
   27  O  2  Y    0.000000  -0.288785   0.000000   0.000000   0.000000
   28  O  2  Z    0.305964   0.000000  -0.109623  -0.178984  -0.101656
   29  O  2 XX   -0.002106   0.000000  -0.000030  -0.000226   0.046685
   30  O  2 YY    0.003816   0.000000   0.000878   0.002296  -0.023315
   31  O  2 ZZ   -0.001710   0.000000  -0.000847  -0.002070  -0.023370
   32  O  2 XY    0.000000  -0.000572   0.000000   0.000000   0.000000
   33  O  2 XZ    0.009316   0.000000   0.003293   0.005720  -0.016665
   34  O  2 YZ    0.000000   0.000337   0.000000   0.000000   0.000000
   35  O  3  S   -0.001441   0.000000   0.015220   0.041422   0.023721
   36  O  3  S    0.007661   0.000000  -0.030952  -0.080672   0.009249
   37  O  3  S   -0.021176   0.000000  -0.096202  -0.292504  -0.497887
   38  O  3  X    0.198103   0.000000   0.377274   0.295826  -0.220643
   39  O  3  Y    0.000000  -0.403666   0.000000   0.000000   0.000000
   40  O  3  Z    0.431463   0.000000  -0.155965   0.219657   0.054876
   41  O  3  X    0.146852   0.000000   0.284891   0.286011   0.286186
   42  O  3  Y    0.000000  -0.288785   0.000000   0.000000   0.000000
   43  O  3  Z    0.305964   0.000000  -0.109623   0.178984   0.101656
   44  O  3 XX   -0.002106   0.000000  -0.000030   0.000226  -0.046685
   45  O  3 YY    0.003816   0.000000   0.000878  -0.002296   0.023315
   46  O  3 ZZ   -0.001710   0.000000  -0.000847   0.002070   0.023370
   47  O  3 XY    0.000000   0.000572   0.000000   0.000000   0.000000
   48  O  3 XZ   -0.009316   0.000000  -0.003293   0.005720  -0.016665
   49  O  3 YZ    0.000000   0.000337   0.000000   0.000000   0.000000

                     21         22         23         24         25
                    0.3654     0.3688     0.3938     0.4589     0.4940
                     A1         B2         A1         A2         A1  
    1  S  1  S   -0.014287   0.000000  -0.104659   0.000000   0.008107
    2  S  1  S   -0.083627   0.000000  -0.366313   0.000000   0.030484
    3  S  1  S   -0.261651   0.000000  -1.602892   0.000000   0.127057
    4  S  1  S    0.437475   0.000000   1.845695   0.000000  -0.154023
    5  S  1  X    0.000000   0.000000   0.000000   0.000000   0.000000
    6  S  1  Y    0.000000   0.297820   0.000000   0.000000   0.000000
    7  S  1  Z    0.284465   0.000000  -0.066542   0.000000   0.022979
    8  S  1  X    0.000000   0.000000   0.000000   0.000000   0.000000
    9  S  1  Y    0.000000  -1.147874   0.000000   0.000000   0.000000
   10  S  1  Z   -1.100342   0.000000   0.251533   0.000000  -0.079851
   11  S  1  X    0.000000   0.000000   0.000000   0.000000   0.000000
   12  S  1  Y    0.000000   1.209140   0.000000   0.000000   0.000000
   13  S  1  Z    1.233093   0.000000  -0.188205   0.000000   0.020506
   14  S  1 XX   -0.109163   0.000000  -0.382059   0.000000  -0.131512
   15  S  1 YY    0.144429   0.000000   0.197928   0.000000  -0.759275
   16  S  1 ZZ   -0.035266   0.000000   0.184131   0.000000   0.890787
   17  S  1 XY    0.000000   0.000000   0.000000   0.856010   0.000000
   18  S  1 XZ    0.000000   0.000000   0.000000   0.000000   0.000000
   19  S  1 YZ    0.000000  -0.086747   0.000000   0.000000   0.000000
   20  O  2  S    0.008475   0.000000   0.010157   0.000000  -0.002918
   21  O  2  S    0.003205   0.000000  -0.016233   0.000000   0.014216
   22  O  2  S   -0.183521   0.000000  -0.150194   0.000000   0.008729
   23  O  2  X    0.039233   0.000000   0.054451   0.000000  -0.049450
   24  O  2  Y    0.000000  -0.109982   0.000000   0.320503   0.000000
   25  O  2  Z   -0.150484   0.000000  -0.085895   0.000000  -0.152393
   26  O  2  X   -0.138883   0.000000  -0.124875   0.000000   0.058307
   27  O  2  Y    0.000000  -0.061488   0.000000  -0.220278   0.000000
   28  O  2  Z   -0.004547   0.000000   0.099877   0.000000   0.101850
   29  O  2 XX   -0.020402   0.000000  -0.027246   0.000000   0.013789
   30  O  2 YY    0.013806   0.000000   0.021324   0.000000  -0.008997
   31  O  2 ZZ    0.006595   0.000000   0.005921   0.000000  -0.004792
   32  O  2 XY    0.000000  -0.002576   0.000000  -0.044132   0.000000
   33  O  2 XZ    0.015245   0.000000   0.032939   0.000000   0.019857
   34  O  2 YZ    0.000000   0.000165   0.000000   0.019221   0.000000
   35  O  3  S    0.008475   0.000000   0.010157   0.000000  -0.002918
   36  O  3  S    0.003205   0.000000  -0.016233   0.000000   0.014216
   37  O  3  S   -0.183521   0.000000  -0.150194   0.000000   0.008729
   38  O  3  X   -0.039233   0.000000  -0.054451   0.000000   0.049450
   39  O  3  Y    0.000000  -0.109982   0.000000  -0.320503   0.000000
   40  O  3  Z   -0.150484   0.000000  -0.085895   0.000000  -0.152393
   41  O  3  X    0.138883   0.000000   0.124875   0.000000  -0.058307
   42  O  3  Y    0.000000  -0.061488   0.000000   0.220278   0.000000
   43  O  3  Z   -0.004547   0.000000   0.099877   0.000000   0.101850
   44  O  3 XX   -0.020402   0.000000  -0.027246   0.000000   0.013789
   45  O  3 YY    0.013806   0.000000   0.021324   0.000000  -0.008997
   46  O  3 ZZ    0.006595   0.000000   0.005921   0.000000  -0.004792
   47  O  3 XY    0.000000   0.002576   0.000000  -0.044132   0.000000
   48  O  3 XZ   -0.015245   0.000000  -0.032939   0.000000  -0.019857
   49  O  3 YZ    0.000000   0.000165   0.000000  -0.019221   0.000000

                     26         27         28         29         30
                    0.4952     0.5693     0.6502     0.7877     0.7954
                     B2         B1         A1         B1         A2  
    1  S  1  S    0.000000   0.000000  -0.055681   0.000000   0.000000
    2  S  1  S    0.000000   0.000000  -0.247472   0.000000   0.000000
    3  S  1  S    0.000000   0.000000  -0.923502   0.000000   0.000000
    4  S  1  S    0.000000   0.000000   1.256076   0.000000   0.000000
    5  S  1  X    0.000000   0.076466   0.000000  -0.020303   0.000000
    6  S  1  Y    0.021947   0.000000   0.000000   0.000000   0.000000
    7  S  1  Z    0.000000   0.000000   0.024215   0.000000   0.000000
    8  S  1  X    0.000000  -0.356761   0.000000   0.107245   0.000000
    9  S  1  Y   -0.077522   0.000000   0.000000   0.000000   0.000000
   10  S  1  Z    0.000000   0.000000  -0.123339   0.000000   0.000000
   11  S  1  X    0.000000   0.911665   0.000000  -0.108772   0.000000
   12  S  1  Y    0.031871   0.000000   0.000000   0.000000   0.000000
   13  S  1  Z    0.000000   0.000000   0.353511   0.000000   0.000000
   14  S  1 XX    0.000000   0.000000   0.821568   0.000000   0.000000
   15  S  1 YY    0.000000   0.000000  -0.586028   0.000000   0.000000
   16  S  1 ZZ    0.000000   0.000000  -0.235540   0.000000   0.000000
   17  S  1 XY    0.000000   0.000000   0.000000   0.000000   0.532709
   18  S  1 XZ    0.000000   0.839079   0.000000   0.464622   0.000000
   19  S  1 YZ    0.969842   0.000000   0.000000   0.000000   0.000000
   20  O  2  S    0.000000  -0.044006   0.049534  -0.008099   0.000000
   21  O  2  S    0.000000   0.218150  -0.306114   0.059559   0.000000
   22  O  2  S    0.000000   0.196666  -0.033428  -0.047778   0.000000
   23  O  2  X    0.000000   0.106357  -0.050396  -0.264530   0.000000
   24  O  2  Y   -0.145716   0.000000   0.000000   0.000000  -0.561001
   25  O  2  Z    0.000000   0.223648   0.163688  -0.512366   0.000000
   26  O  2  X    0.000000   0.192047  -0.311173   0.396862   0.000000
   27  O  2  Y    0.106651   0.000000   0.000000   0.000000   0.715255
   28  O  2  Z    0.000000  -0.322308  -0.056583   0.614850   0.000000
   29  O  2 XX    0.000000  -0.028086   0.013695  -0.043203   0.000000
   30  O  2 YY    0.000000   0.002236  -0.019025   0.014804   0.000000
   31  O  2 ZZ    0.000000   0.025849   0.005331   0.028399   0.000000
   32  O  2 XY    0.022011   0.000000   0.000000   0.000000  -0.039937
   33  O  2 XZ    0.000000  -0.022868  -0.032295  -0.005009   0.000000
   34  O  2 YZ    0.003052   0.000000   0.000000   0.000000   0.017058
   35  O  3  S    0.000000   0.044006   0.049534   0.008099   0.000000
   36  O  3  S    0.000000  -0.218150  -0.306114  -0.059559   0.000000
   37  O  3  S    0.000000  -0.196666  -0.033428   0.047778   0.000000
   38  O  3  X    0.000000   0.106357   0.050396  -0.264530   0.000000
   39  O  3  Y   -0.145716   0.000000   0.000000   0.000000   0.561001
   40  O  3  Z    0.000000  -0.223648   0.163688   0.512366   0.000000
   41  O  3  X    0.000000   0.192047   0.311173   0.396862   0.000000
   42  O  3  Y    0.106651   0.000000   0.000000   0.000000  -0.715255
   43  O  3  Z    0.000000   0.322308  -0.056583  -0.614850   0.000000
   44  O  3 XX    0.000000   0.028086   0.013695   0.043203   0.000000
   45  O  3 YY    0.000000  -0.002236  -0.019025  -0.014804   0.000000
   46  O  3 ZZ    0.000000  -0.025849   0.005331  -0.028399   0.000000
   47  O  3 XY   -0.022011   0.000000   0.000000   0.000000  -0.039937
   48  O  3 XZ    0.000000  -0.022868   0.032295  -0.005009   0.000000
   49  O  3 YZ    0.003052   0.000000   0.000000   0.000000  -0.017058

                     31         32         33         34         35
                    0.8044     0.8094     0.8228     0.8245     1.4841
                     B2         A1         A1         B1         A1  
    1  S  1  S    0.000000  -0.021720   0.001160   0.000000   0.025226
    2  S  1  S    0.000000  -0.010233  -0.006673   0.000000   0.246590
    3  S  1  S    0.000000  -0.261556   0.006599   0.000000   0.583747
    4  S  1  S    0.000000  -0.250319   0.096326   0.000000  -1.361614
    5  S  1  X    0.000000   0.000000   0.000000  -0.114280   0.000000
    6  S  1  Y   -0.034809   0.000000   0.000000   0.000000   0.000000
    7  S  1  Z    0.000000   0.035720  -0.037537   0.000000   0.006909
    8  S  1  X    0.000000   0.000000   0.000000   0.536511   0.000000
    9  S  1  Y    0.181602   0.000000   0.000000   0.000000   0.000000
   10  S  1  Z    0.000000  -0.162863   0.193390   0.000000  -0.009200
   11  S  1  X    0.000000   0.000000   0.000000  -0.095712   0.000000
   12  S  1  Y   -0.510313   0.000000   0.000000   0.000000   0.000000
   13  S  1  Z    0.000000  -0.071043  -0.450005   0.000000  -0.390877
   14  S  1 XX    0.000000  -0.021253   0.346884   0.000000  -0.414497
   15  S  1 YY    0.000000   0.052760  -0.003254   0.000000   0.268544
   16  S  1 ZZ    0.000000  -0.031507  -0.343630   0.000000   0.145953
   17  S  1 XY    0.000000   0.000000   0.000000   0.000000   0.000000
   18  S  1 XZ    0.000000   0.000000   0.000000  -0.055919   0.000000
   19  S  1 YZ   -0.233049   0.000000   0.000000   0.000000   0.000000
   20  O  2  S    0.000000  -0.021133   0.007022  -0.016307   0.018415
   21  O  2  S    0.000000   0.220245  -0.049568   0.186051  -1.076997
   22  O  2  S    0.000000  -0.126078   0.047528  -0.154596   1.362043
   23  O  2  X    0.000000  -0.607632  -0.116760  -0.526846  -0.147104
   24  O  2  Y   -0.614531   0.000000   0.000000   0.000000   0.000000
   25  O  2  Z    0.000000   0.103227  -0.574093   0.290859   0.002505
   26  O  2  X    0.000000   0.834793   0.102999   0.712287   0.547861
   27  O  2  Y    0.818255   0.000000   0.000000   0.000000   0.000000
   28  O  2  Z    0.000000  -0.143687   0.792805  -0.381401  -0.082904
   29  O  2 XX    0.000000  -0.029813   0.008712  -0.031538  -0.166641
   30  O  2 YY    0.000000   0.015991  -0.015218   0.022928   0.104100
   31  O  2 ZZ    0.000000   0.013822   0.006506   0.008610   0.062541
   32  O  2 XY   -0.022449   0.000000   0.000000   0.000000   0.000000
   33  O  2 XZ    0.000000   0.010062  -0.046968   0.031199   0.101373
   34  O  2 YZ    0.004202   0.000000   0.000000   0.000000   0.000000
   35  O  3  S    0.000000  -0.021133   0.007022   0.016307   0.018415
   36  O  3  S    0.000000   0.220245  -0.049568  -0.186051  -1.076997
   37  O  3  S    0.000000  -0.126078   0.047528   0.154596   1.362043
   38  O  3  X    0.000000   0.607632   0.116760  -0.526846   0.147104
   39  O  3  Y   -0.614531   0.000000   0.000000   0.000000   0.000000
   40  O  3  Z    0.000000   0.103227  -0.574093  -0.290859   0.002505
   41  O  3  X    0.000000  -0.834793  -0.102999   0.712287  -0.547861
   42  O  3  Y    0.818255   0.000000   0.000000   0.000000   0.000000
   43  O  3  Z    0.000000  -0.143687   0.792805   0.381401  -0.082904
   44  O  3 XX    0.000000  -0.029813   0.008712   0.031538  -0.166641
   45  O  3 YY    0.000000   0.015991  -0.015218  -0.022928   0.104100
   46  O  3 ZZ    0.000000   0.013822   0.006506  -0.008610   0.062541
   47  O  3 XY    0.022449   0.000000   0.000000   0.000000   0.000000
   48  O  3 XZ    0.000000  -0.010062   0.046968   0.031199  -0.101373
   49  O  3 YZ    0.004202   0.000000   0.000000   0.000000   0.000000

                     36         37         38         39         40
                    1.5915     2.0818     2.0820     2.0843     2.0856
                     B1         B1         A2         B2         A1  
    1  S  1  S    0.000000   0.000000   0.000000   0.000000  -0.000452
    2  S  1  S    0.000000   0.000000   0.000000   0.000000  -0.006507
    3  S  1  S    0.000000   0.000000   0.000000   0.000000  -0.013175
    4  S  1  S    0.000000   0.000000   0.000000   0.000000   0.035040
    5  S  1  X   -0.017516  -0.003029   0.000000   0.000000   0.000000
    6  S  1  Y    0.000000   0.000000   0.000000   0.001886   0.000000
    7  S  1  Z    0.000000   0.000000   0.000000   0.000000  -0.000849
    8  S  1  X    0.001287   0.004957   0.000000   0.000000   0.000000
    9  S  1  Y    0.000000   0.000000   0.000000   0.011877   0.000000
   10  S  1  Z    0.000000   0.000000   0.000000   0.000000  -0.001209
   11  S  1  X    1.205779   0.042244   0.000000   0.000000   0.000000
   12  S  1  Y    0.000000   0.000000   0.000000  -0.080681   0.000000
   13  S  1  Z    0.000000   0.000000   0.000000   0.000000   0.026312
   14  S  1 XX    0.000000   0.000000   0.000000   0.000000   0.003552
   15  S  1 YY    0.000000   0.000000   0.000000   0.000000  -0.033720
   16  S  1 ZZ    0.000000   0.000000   0.000000   0.000000   0.030169
   17  S  1 XY    0.000000   0.000000   0.048085   0.000000   0.000000
   18  S  1 XZ    0.340770  -0.041050   0.000000   0.000000   0.000000
   19  S  1 YZ    0.000000   0.000000   0.000000  -0.063520   0.000000
   20  O  2  S    0.013356   0.000321   0.000000   0.000000   0.000472
   21  O  2  S   -1.169369  -0.022243   0.000000   0.000000   0.017551
   22  O  2  S    1.651903   0.035182   0.000000   0.000000  -0.029091
   23  O  2  X   -0.108362  -0.002703   0.000000   0.000000   0.005655
   24  O  2  Y    0.000000   0.000000  -0.006730  -0.019237   0.000000
   25  O  2  Z    0.090429   0.010209   0.000000   0.000000   0.004042
   26  O  2  X    0.498485   0.009494   0.000000   0.000000  -0.018645
   27  O  2  Y    0.000000   0.000000   0.010306   0.036595   0.000000
   28  O  2  Z   -0.300932  -0.017443   0.000000   0.000000  -0.006248
   29  O  2 XX   -0.145962  -0.209246   0.000000   0.000000  -0.119719
   30  O  2 YY    0.086146   0.555836   0.000000   0.000000   0.612177
   31  O  2 ZZ    0.059816  -0.346590   0.000000   0.000000  -0.492458
   32  O  2 XY    0.000000   0.000000   0.429109   0.568133   0.000000
   33  O  2 XZ    0.098406  -0.430028   0.000000   0.000000  -0.280764
   34  O  2 YZ    0.000000   0.000000   0.562075   0.422504   0.000000
   35  O  3  S   -0.013356  -0.000321   0.000000   0.000000   0.000472
   36  O  3  S    1.169369   0.022243   0.000000   0.000000   0.017551
   37  O  3  S   -1.651903  -0.035182   0.000000   0.000000  -0.029091
   38  O  3  X   -0.108362  -0.002703   0.000000   0.000000  -0.005655
   39  O  3  Y    0.000000   0.000000   0.006730  -0.019237   0.000000
   40  O  3  Z   -0.090429  -0.010209   0.000000   0.000000   0.004042
   41  O  3  X    0.498485   0.009494   0.000000   0.000000   0.018645
   42  O  3  Y    0.000000   0.000000  -0.010306   0.036595   0.000000
   43  O  3  Z    0.300932   0.017443   0.000000   0.000000  -0.006248
   44  O  3 XX    0.145962   0.209246   0.000000   0.000000  -0.119719
   45  O  3 YY   -0.086146  -0.555836   0.000000   0.000000   0.612177
   46  O  3 ZZ   -0.059816   0.346590   0.000000   0.000000  -0.492458
   47  O  3 XY    0.000000   0.000000   0.429109  -0.568133   0.000000
   48  O  3 XZ    0.098406  -0.430028   0.000000   0.000000   0.280764
   49  O  3 YZ    0.000000   0.000000  -0.562075   0.422504   0.000000

                     41         42         43         44         45
                    2.0883     2.0975     2.1086     2.1097     2.2893
                     B2         B1         A1         A2         B1  
    1  S  1  S    0.000000   0.000000  -0.000801   0.000000   0.000000
    2  S  1  S    0.000000   0.000000  -0.030469   0.000000   0.000000
    3  S  1  S    0.000000   0.000000  -0.047625   0.000000   0.000000
    4  S  1  S    0.000000   0.000000   0.161221   0.000000   0.000000
    5  S  1  X    0.000000  -0.020817   0.000000   0.000000  -0.103087
    6  S  1  Y   -0.003217   0.000000   0.000000   0.000000   0.000000
    7  S  1  Z    0.000000   0.000000  -0.009096   0.000000   0.000000
    8  S  1  X    0.000000   0.059018   0.000000   0.000000   0.344453
    9  S  1  Y   -0.016278   0.000000   0.000000   0.000000   0.000000
   10  S  1  Z    0.000000   0.000000  -0.001295   0.000000   0.000000
   11  S  1  X    0.000000   0.123165   0.000000   0.000000   0.353307
   12  S  1  Y    0.118322   0.000000   0.000000   0.000000   0.000000
   13  S  1  Z    0.000000   0.000000   0.174668   0.000000   0.000000
   14  S  1 XX    0.000000   0.000000  -0.030003   0.000000   0.000000
   15  S  1 YY    0.000000   0.000000  -0.052652   0.000000   0.000000
   16  S  1 ZZ    0.000000   0.000000   0.082654   0.000000   0.000000
   17  S  1 XY    0.000000   0.000000   0.000000   0.187181   0.000000
   18  S  1 XZ    0.000000  -0.080108   0.000000   0.000000   0.342402
   19  S  1 YZ    0.046874   0.000000   0.000000   0.000000   0.000000
   20  O  2  S    0.000000  -0.000353  -0.000564   0.000000  -0.003369
   21  O  2  S    0.000000  -0.085897   0.091057   0.000000  -0.375558
   22  O  2  S    0.000000   0.136335  -0.135463   0.000000   0.571603
   23  O  2  X    0.000000  -0.018448   0.037813   0.000000  -0.093927
   24  O  2  Y    0.026761   0.000000   0.000000  -0.024791   0.000000
   25  O  2  Z    0.000000   0.028940   0.027064   0.000000   0.032192
   26  O  2  X    0.000000   0.055178  -0.097706   0.000000   0.325371
   27  O  2  Y   -0.049295   0.000000   0.000000   0.039807   0.000000
   28  O  2  Z    0.000000  -0.054329  -0.044302   0.000000  -0.119339
   29  O  2 XX    0.000000  -0.227504  -0.463449   0.000000   0.634497
   30  O  2 YY    0.000000  -0.300229  -0.016661   0.000000  -0.315623
   31  O  2 ZZ    0.000000   0.527733   0.480110   0.000000  -0.318874
   32  O  2 XY   -0.425707   0.000000   0.000000   0.562467   0.000000
   33  O  2 XZ    0.000000  -0.469103  -0.454578   0.000000  -0.304168
   34  O  2 YZ    0.567467   0.000000   0.000000  -0.429081   0.000000
   35  O  3  S    0.000000   0.000353  -0.000564   0.000000   0.003369
   36  O  3  S    0.000000   0.085897   0.091057   0.000000   0.375558
   37  O  3  S    0.000000  -0.136335  -0.135463   0.000000  -0.571603
   38  O  3  X    0.000000  -0.018448  -0.037813   0.000000  -0.093927
   39  O  3  Y    0.026761   0.000000   0.000000   0.024791   0.000000
   40  O  3  Z    0.000000  -0.028940   0.027064   0.000000  -0.032192
   41  O  3  X    0.000000   0.055178   0.097706   0.000000   0.325371
   42  O  3  Y   -0.049295   0.000000   0.000000  -0.039807   0.000000
   43  O  3  Z    0.000000   0.054329  -0.044302   0.000000   0.119339
   44  O  3 XX    0.000000   0.227504  -0.463449   0.000000  -0.634497
   45  O  3 YY    0.000000   0.300229  -0.016661   0.000000   0.315623
   46  O  3 ZZ    0.000000  -0.527733   0.480110   0.000000   0.318874
   47  O  3 XY    0.425707   0.000000   0.000000   0.562467   0.000000
   48  O  3 XZ    0.000000  -0.469103   0.454578   0.000000  -0.304168
   49  O  3 YZ    0.567467   0.000000   0.000000   0.429081   0.000000

                     46
                    2.3721
                     A1  
    1  S  1  S   -0.000516
    2  S  1  S   -0.152667
    3  S  1  S   -0.201354
    4  S  1  S    0.802889
    5  S  1  X    0.000000
    6  S  1  Y    0.000000
    7  S  1  Z   -0.039226
    8  S  1  X    0.000000
    9  S  1  Y    0.000000
   10  S  1  Z    0.135608
   11  S  1  X    0.000000
   12  S  1  Y    0.000000
   13  S  1  Z    0.136101
   14  S  1 XX    0.519056
   15  S  1 YY   -0.306309
   16  S  1 ZZ   -0.212747
   17  S  1 XY    0.000000
   18  S  1 XZ    0.000000
   19  S  1 YZ    0.000000
   20  O  2  S    0.005871
   21  O  2  S    0.405318
   22  O  2  S   -0.610974
   23  O  2  X    0.096791
   24  O  2  Y    0.000000
   25  O  2  Z   -0.037002
   26  O  2  X   -0.389173
   27  O  2  Y    0.000000
   28  O  2  Z    0.140088
   29  O  2 XX   -0.519604
   30  O  2 YY    0.352114
   31  O  2 ZZ    0.167489
   32  O  2 XY    0.000000
   33  O  2 XZ    0.468579
   34  O  2 YZ    0.000000
   35  O  3  S    0.005871
   36  O  3  S    0.405318
   37  O  3  S   -0.610974
   38  O  3  X   -0.096791
   39  O  3  Y    0.000000
   40  O  3  Z   -0.037002
   41  O  3  X    0.389173
   42  O  3  Y    0.000000
   43  O  3  Z    0.140088
   44  O  3 XX   -0.519604
   45  O  3 YY    0.352114
   46  O  3 ZZ    0.167489
   47  O  3 XY    0.000000
   48  O  3 XZ   -0.468579
   49  O  3 YZ    0.000000
 ...... END OF RHF CALCULATION ......
 STEP CPU TIME =     4.16 TOTAL CPU TIME =        4.3 (    0.1 MIN)
 TOTAL WALL CLOCK TIME=        4.3 SECONDS, CPU UTILIZATION IS  99.77%

     ---------------------------------------------------------------------
     PROPERTIES FOR THE PBE      DFT FUNCTIONAL (RHF  TYPE) DENSITY MATRIX
     ---------------------------------------------------------------------

          -----------------
          ENERGY COMPONENTS
          -----------------

         WAVEFUNCTION NORMALIZATION =       1.0000000000

                ONE ELECTRON ENERGY =    -916.1338397839
                TWO ELECTRON ENERGY =     287.2419235322
           NUCLEAR REPULSION ENERGY =      80.7841121728
                                      ------------------
                       TOTAL ENERGY =    -548.1078040789

 ELECTRON-ELECTRON POTENTIAL ENERGY =     287.2419235322
  NUCLEUS-ELECTRON POTENTIAL ENERGY =   -1462.7121863950
   NUCLEUS-NUCLEUS POTENTIAL ENERGY =      80.7841121728
                                      ------------------
             TOTAL POTENTIAL ENERGY =   -1094.6861506900
               TOTAL KINETIC ENERGY =     546.5783466111
                 VIRIAL RATIO (V/T) =       2.0027982401

          ---------------------------------------
          MULLIKEN AND LOWDIN POPULATION ANALYSES
          ---------------------------------------

     ATOMIC MULLIKEN POPULATION IN EACH MOLECULAR ORBITAL

                      1          2          3          4          5

                  2.000000   2.000000   2.000000   2.000000   2.000000

    1             1.999999   0.000756   0.000331   1.999984   2.000001
    2             0.000001   0.999622   0.999834   0.000008  -0.000001
    3             0.000001   0.999622   0.999834   0.000008  -0.000001

                      6          7          8          9         10

                  2.000000   2.000000   2.000000   2.000000   2.000000

    1             2.000002   1.999993   0.439158   0.122325   1.424762
    2            -0.000001   0.000004   0.780421   0.938837   0.287619
    3            -0.000001   0.000004   0.780421   0.938837   0.287619

                     11         12         13         14         15

                  2.000000   2.000000   2.000000   2.000000   2.000000

    1             0.666009   1.200653   1.224278   0.023115   0.050055
    2             0.666996   0.399674   0.387861   0.988443   0.974972
    3             0.666996   0.399674   0.387861   0.988443   0.974972

                     16

                  2.000000

    1             0.153697
    2             0.923151
    3             0.923151

               ----- POPULATIONS IN EACH AO -----
                             MULLIKEN      LOWDIN
              1  S  1  S      2.00021     1.99612
              2  S  1  S      2.01085     1.97589
              3  S  1  S      1.02849     0.66362
              4  S  1  S      0.91097     0.57145
              5  S  1  X      1.99608     1.95204
              6  S  1  Y      1.99634     1.95662
              7  S  1  Z      1.99650     1.95777
              8  S  1  X      0.61299     0.56889
              9  S  1  Y      0.69261     0.67667
             10  S  1  Z      0.72491     0.70500
             11  S  1  X      0.19819     0.34457
             12  S  1  Y      0.53373     0.57796
             13  S  1  Z      0.47856     0.54141
             14  S  1 XX      0.01901     0.24464
             15  S  1 YY      0.04908     0.26995
             16  S  1 ZZ      0.02311     0.26514
             17  S  1 XY      0.03189     0.02646
             18  S  1 XZ      0.00159     0.04025
             19  S  1 YZ      0.00000     0.00150
             20  O  2  S      1.99802     1.98156
             21  O  2  S      0.86327     0.67651
             22  O  2  S      1.11706     0.62456
             23  O  2  X      0.73501     0.69856
             24  O  2  Y      0.82691     0.79788
             25  O  2  Z      1.08134     1.05045
             26  O  2  X      0.48536     0.55403
             27  O  2  Y      0.54794     0.58074
             28  O  2  Z      0.68589     0.72396
             29  O  2 XX      0.00092     0.21540
             30  O  2 YY      0.00247     0.21515
             31  O  2 ZZ      0.00128     0.20903
             32  O  2 XY      0.00180     0.00156
             33  O  2 XZ      0.00017     0.00240
             34  O  2 YZ      0.00000     0.00021
             35  O  3  S      1.99802     1.98156
             36  O  3  S      0.86327     0.67651
             37  O  3  S      1.11706     0.62456
             38  O  3  X      0.73501     0.69856
             39  O  3  Y      0.82691     0.79788
             40  O  3  Z      1.08134     1.05045
             41  O  3  X      0.48536     0.55403
             42  O  3  Y      0.54794     0.58074
             43  O  3  Z      0.68589     0.72396
             44  O  3 XX      0.00092     0.21540
             45  O  3 YY      0.00247     0.21515
             46  O  3 ZZ      0.00128     0.20903
             47  O  3 XY      0.00180     0.00156
             48  O  3 XZ      0.00017     0.00240
             49  O  3 YZ      0.00000     0.00021

          ----- MULLIKEN ATOMIC OVERLAP POPULATIONS -----
          (OFF-DIAGONAL ELEMENTS NEED TO BE MULTIPLIED BY 2)

             1           2           3

    1   14.9234083
    2    0.1908553   8.1585320
    3    0.1908553  -0.0019468   8.1585320

          TOTAL MULLIKEN AND LOWDIN ATOMIC POPULATIONS
       ATOM         MULL.POP.    CHARGE          LOW.POP.     CHARGE
    1 S            15.305119    0.694881        15.335975    0.664025
    2 O             8.347440   -0.347440         8.332012   -0.332012
    3 O             8.347440   -0.347440         8.332012   -0.332012

          MULLIKEN SPHERICAL HARMONIC POPULATIONS
       ATOM           S       P       D      F      G      H      I    TOTAL
    1 S             5.95    9.23    0.12   0.00   0.00   0.00   0.00   15.31
    2 O             3.98    4.36    0.01   0.00   0.00   0.00   0.00    8.35
    3 O             3.98    4.36    0.01   0.00   0.00   0.00   0.00    8.35

          -------------------------------
          BOND ORDER AND VALENCE ANALYSIS     BOND ORDER THRESHOLD=0.050
          -------------------------------

                   BOND                       BOND                       BOND
  ATOM PAIR DIST  ORDER      ATOM PAIR DIST  ORDER      ATOM PAIR DIST  ORDER
    1   2  1.900  1.538        1   3  1.900  1.538        2   3  3.571  0.648

                       TOTAL       BONDED        FREE
      ATOM            VALENCE     VALENCE     VALENCE
    1 S                 3.075       3.075       0.000
    2 O                 2.186       2.186       0.000
    3 O                 2.186       2.186       0.000

          ---------------------
          ELECTROSTATIC MOMENTS
          ---------------------

 POINT   1           X           Y           Z (BOHR)    CHARGE
                 0.000000    0.000000    0.000000        0.00 (A.U.)
         DX          DY          DZ         /D/  (DEBYE)
     0.000000    0.000000   -1.441518    1.441518
 ...... END OF PROPERTY EVALUATION ......
 STEP CPU TIME =     0.00 TOTAL CPU TIME =        4.3 (    0.1 MIN)
 TOTAL WALL CLOCK TIME=        4.3 SECONDS, CPU UTILIZATION IS  99.77%
               580000  WORDS OF DYNAMIC MEMORY USED
 EXECUTION OF GAMESS TERMINATED NORMALLY Thu Feb 26 00:22:05 2015
 DDI: 263624 bytes (0.3 MB / 0 MWords) used by master data server.

 ----------------------------------------
 CPU timing information for all processes
 ========================================
 0: 4.316 + 0.26 = 4.343
 ----------------------------------------
 ddikick.x: exited gracefully.
----- accounting info -----
Files used on the master node dftfe.crc.nd.edu were:
-rw-r--r-- 1 pmehta1 campus   37475 Feb 26 00:22 /tmp/gamess.dat
-rw-r--r-- 1 pmehta1 campus     142 Feb 26 00:22 /tmp/gamess.F05
-rw-r--r-- 1 pmehta1 campus 1800240 Feb 26 00:22 /tmp/gamess.F08
-rw-r--r-- 1 pmehta1 campus 1220440 Feb 26 00:22 /tmp/gamess.F10
Thu Feb 26 00:22:08 EST 2015
0.239u 0.177s 0:07.77 5.1%	0+0k 0+104io 0pf+0w
