----- GAMESS execution script 'rungms' -----
This job is running on host dftfe.crc.nd.edu
under operating system Linux at Thu Feb 26 00:20:56 EST 2015
Available scratch disk space (Kbyte units) at beginning of the job is
Filesystem     1K-blocks     Used Available Use% Mounted on
/dev/sda2      147771864 22816964 117448468  17% /
GAMESS temporary binary files will be written to /tmp
GAMESS supplementary output files will be written to /tmp
Copying input file gamess.inp to your run's scratch directory...

 Distributed Data Interface kickoff program.
 Initiating 1 compute processes on 1 nodes to run the following command:
 /opt/crc/gamess/2012R1/gamess/gamess.00.x gamess 

          ******************************************************
          *         GAMESS VERSION =  1 MAY 2012 (R1)          *
          *             FROM IOWA STATE UNIVERSITY             *
          * M.W.SCHMIDT, K.K.BALDRIDGE, J.A.BOATZ, S.T.ELBERT, *
          *   M.S.GORDON, J.H.JENSEN, S.KOSEKI, N.MATSUNAGA,   *
          *          K.A.NGUYEN, S.J.SU, T.L.WINDUS,           *
          *       TOGETHER WITH M.DUPUIS, J.A.MONTGOMERY       *
          *         J.COMPUT.CHEM.  14, 1347-1363(1993)        *
          **************** 64 BIT LINUX VERSION ****************

  SINCE 1993, STUDENTS AND POSTDOCS WORKING AT IOWA STATE UNIVERSITY
  AND ALSO IN THEIR VARIOUS JOBS AFTER LEAVING ISU HAVE MADE IMPORTANT
  CONTRIBUTIONS TO THE CODE:
     IVANA ADAMOVIC, CHRISTINE AIKENS, YURI ALEXEEV, POOJA ARORA,
     ANDREY ASADCHEV, ROB BELL, PRADIPTA BANDYOPADHYAY, JONATHAN BENTZ,
     BRETT BODE, GALINA CHABAN, WEI CHEN, CHEOL HO CHOI, PAUL DAY,
     ALBERT DEFUSCO, TIM DUDLEY, DMITRI FEDOROV, GRAHAM FLETCHER,
     MARK FREITAG, KURT GLAESEMANN, DAN KEMP, GRANT MERRILL,
     NORIYUKI MINEZAWA, JONATHAN MULLIN, TAKESHI NAGATA,
     SEAN NEDD, HEATHER NETZLOFF, BOSILJKA NJEGIC, RYAN OLSON, MIKE PAK,
     JIM SHOEMAKER, LYUDMILA SLIPCHENKO, SAROM SOK, JIE SONG,
     TETSUYA TAKETSUGU, SIMON WEBB, SOOHAENG YOO, FEDERICO ZAHARIEV

  ADDITIONAL CODE HAS BEEN PROVIDED BY COLLABORATORS IN OTHER GROUPS:
     IOWA STATE UNIVERSITY:
          JOE IVANIC, LAIMUTIS BYTAUTAS, KLAUS RUEDENBERG
     UNIVERSITY OF TOKYO: KIMIHIKO HIRAO, TAKAHITO NAKAJIMA,
          TAKAO TSUNEDA, MUNEAKI KAMIYA, SUSUMU YANAGISAWA,
          KIYOSHI YAGI, MAHITO CHIBA, SEIKEN TOKURA, NAOAKI KAWAKAMI
     UNIVERSITY OF AARHUS: FRANK JENSEN
     UNIVERSITY OF IOWA: VISVALDAS KAIRYS, HUI LI
     NATIONAL INST. OF STANDARDS AND TECHNOLOGY: WALT STEVENS, DAVID GARMER
     UNIVERSITY OF PISA: BENEDETTA MENNUCCI, JACOPO TOMASI
     UNIVERSITY OF MEMPHIS: HENRY KURTZ, PRAKASHAN KORAMBATH
     UNIVERSITY OF ALBERTA: TOBY ZENG, MARIUSZ KLOBUKOWSKI
     UNIVERSITY OF NEW ENGLAND: MARK SPACKMAN
     MIE UNIVERSITY: HIROAKI UMEDA
     MICHIGAN STATE UNIVERSITY:
          KAROL KOWALSKI, MARTA WLOCH, JEFFREY GOUR, JESSE LUTZ, PIOTR PIECUCH
     UNIVERSITY OF SILESIA: MONIKA MUSIAL, STANISLAW KUCHARSKI
     FACULTES UNIVERSITAIRES NOTRE-DAME DE LA PAIX:
          OLIVIER QUINET, BENOIT CHAMPAGNE
     UNIVERSITY OF CALIFORNIA - SANTA BARBARA: BERNARD KIRTMAN
     INSTITUTE FOR MOLECULAR SCIENCE:
          KAZUYA ISHIMURA, MICHIO KATOUDA, AND SHIGERU NAGASE
     UNIVERSITY OF NOTRE DAME: DAN CHIPMAN
     KYUSHU UNIVERSITY:
          HARUYUKI NAKANO,
          FENG LONG GU, JACEK KORCHOWIEC, MARCIN MAKOWSKI, AND YURIKO AOKI,
          HIROTOSHI MORI AND EISAKU MIYOSHI
     PENNSYLVANIA STATE UNIVERSITY:
          TZVETELIN IORDANOV, CHET SWALINA, JONATHAN SKONE,
          SHARON HAMMES-SCHIFFER
     WASEDA UNIVERSITY:
          MASATO KOBAYASHI, TOMOKO AKAMA, TSUGUKI TOUMA,
          TAKESHI YOSHIKAWA, YASUHIRO IKABATA, HIROMI NAKAI
     UNIVERSITY OF NEBRASKA:
          PEIFENG SU, DEJUN SI, NANDUN THELLAMUREGE, YALI WANG, HUI LI
     UNIVERSITY OF ZURICH:
          ROBERTO PEVERATI, KIM BALDRIDGE
     N. COPERNICUS UNIVERSITY AND JACKSON STATE UNIVERSITY:
          MARIA BARYSZ

 EXECUTION OF GAMESS BEGUN Thu Feb 26 00:20:56 2015

            ECHO OF THE FIRST FEW INPUT CARDS -
 INPUT CARD> $BASIS GBASIS=PC1 $END                                                         
 INPUT CARD> $CONTRL COORD=ZMT ISPHER=1 RUNTYP=ENERGY DFTTYP=PBE $END                       
 INPUT CARD>                                                                                
 INPUT CARD> $DATA                                                                          
 INPUT CARD>Title                                                                           
 INPUT CARD>Cnv 2                                                                           
 INPUT CARD>                                                                                
 INPUT CARD>S                                                                               
 INPUT CARD>O 1 1.80                                                                        
 INPUT CARD>O 1 1.80 2 150.0                                                                
 INPUT CARD> $END                                                                           
    1000000 WORDS OF MEMORY AVAILABLE

     BASIS OPTIONS
     -------------
     GBASIS=PC1          IGAUSS=       0      POLAR=NONE    
     NDFUNC=       0     NFFUNC=       0     DIFFSP=       F
     NPFUNC=       0      DIFFS=       F     BASNAM=        


     RUN TITLE
     ---------
 Title                                                                           

 THE POINT GROUP OF THE MOLECULE IS CNV     
 THE ORDER OF THE PRINCIPAL AXIS IS     2

 YOUR FULLY SUBSTITUTED Z-MATRIX IS
 S   
 O      1   1.8000000
 O      1   1.8000000  2  150.0000

 THE MOMENTS OF INERTIA ARE (AMU-ANGSTROM**2)
 IXX=     3.471   IYY=    96.704   IZZ=   100.175

 ATOM      ATOMIC                      COORDINATES (BOHR)
           CHARGE         X                   Y                   Z
 S          16.0     0.0000000000        0.0000000000       -0.4403095240
 O           8.0    -3.2856032451        0.0000000000        0.4400652121
 O           8.0     3.2856032451        0.0000000000        0.4400652121

          INTERNUCLEAR DISTANCES (ANGS.)
          ------------------------------

                1 S          2 O          3 O     

   1 S       0.0000000    1.8000000 *  1.8000000 *
   2 O       1.8000000 *  0.0000000    3.4773330  
   3 O       1.8000000 *  3.4773330    0.0000000  

  * ... LESS THAN  3.000


     ATOMIC BASIS SET
     ----------------
 THE CONTRACTED PRIMITIVE FUNCTIONS HAVE BEEN UNNORMALIZED
 THE CONTRACTED BASIS FUNCTIONS ARE NOW NORMALIZED TO UNITY

  SHELL TYPE  PRIMITIVE        EXPONENT          CONTRACTION COEFFICIENT(S)

 S         

      1   S       1         55510.0000000    0.000587229760
      1   S       2          8326.7000000    0.004532413947
      1   S       3          1895.6000000    0.023265261648
      1   S       4           536.7700000    0.089696133027
      1   S       5           174.6700000    0.254098332277
      1   S       6            62.5780000    0.438665087637
      1   S       7            23.5730000    0.314547135094
      1   S       8             5.8908000    0.032727897102

      2   S       9          8326.7000000   -0.000019755715
      2   S      10          1895.6000000   -0.000043822381
      2   S      11           536.7700000   -0.001730264906
      2   S      12           174.6700000   -0.009381263460
      2   S      13            62.5780000   -0.064050766303
      2   S      14            23.5730000   -0.082478179196
      2   S      15             5.8908000    0.478342956889
      2   S      16             2.1852000    0.626896670208

      3   S      17          1895.6000000    0.000016227260
      3   S      18           536.7700000    0.000191135619
      3   S      19           174.6700000    0.001952069674
      3   S      20            62.5780000    0.010578701087
      3   S      21            23.5730000    0.022164934551
      3   S      22             5.8908000   -0.184968323118
      3   S      23             2.1852000   -0.480920750976
      3   S      24             0.4528200    1.243822243872

      4   S      25             0.1620200    1.000000000000

      5   P      26           395.4500000    0.004642761329
      5   P      27            92.8340000    0.036023396489
      5   P      28            29.2660000    0.149058869978
      5   P      29            10.5950000    0.360033266263
      5   P      30             4.0272000    0.455756476221
      5   P      31             1.5484000    0.206167664178

      6   P      32            92.8340000    0.000169901442
      6   P      33            29.2660000   -0.002541839934
      6   P      34            10.5950000   -0.007867614595
      6   P      35             4.0272000   -0.037231009184
      6   P      36             1.5484000    0.161417246830
      6   P      37             0.4613400    0.902230419976

      7   P      38             0.1313100    1.000000000000

      8   D      39             0.5500000    1.000000000000

 O         

     15   S      40          2306.7000000    0.005424388755
     15   S      41           347.1500000    0.040474749465
     15   S      42            78.8900000    0.180219634554
     15   S      43            21.8760000    0.462370311787
     15   S      44             6.6646000    0.454888396263

     16   S      45           347.1500000   -0.000655003786
     16   S      46            78.8900000   -0.005362052952
     16   S      47            21.8760000   -0.074902158894
     16   S      48             6.6646000   -0.181442579655
     16   S      49             1.0669000    1.102006874042

     17   S      50             0.3070000    1.000000000000

     18   P      51            17.0220000    0.068979967443
     18   P      52             3.6838000    0.351985516325
     18   P      53             0.9923400    0.724036547822

     19   P      54             0.2448700    1.000000000000

     20   D      55             1.0000000    1.000000000000

 TOTAL NUMBER OF BASIS SET SHELLS             =   20
 NUMBER OF CARTESIAN GAUSSIAN BASIS FUNCTIONS =   49
 NOTE: THIS RUN WILL RESTRICT THE MO VARIATION SPACE TO SPHERICAL HARMONICS.
 THE NUMBER OF ORBITALS KEPT IN THE VARIATIONAL SPACE WILL BE PRINTED LATER.
 NUMBER OF ELECTRONS                          =   32
 CHARGE OF MOLECULE                           =    0
 SPIN MULTIPLICITY                            =    1
 NUMBER OF OCCUPIED ORBITALS (ALPHA)          =   16
 NUMBER OF OCCUPIED ORBITALS (BETA )          =   16
 TOTAL NUMBER OF ATOMS                        =    3
 THE NUCLEAR REPULSION ENERGY IS       85.0002239160

     LEBEDEV GRID-BASED DFT OPTIONS
     ------------------------------
     DFTTYP=PBE     
     NRAD  =      96     NLEB  =     302
     NRAD0 =      24     NLEB0 =     110
     SWOFF =    5.00E-03 (PURE SCF -> DFT)
     SWITCH=    3.00E-04 (COARSE -> TIGHT GRID)
     THRESH=    0.00E+00 GTHRE=    1.00E+00

 GRIMME'S EMPIRICAL DISPERSION CORRECTION= F

     $CONTRL OPTIONS
     ---------------
 SCFTYP=RHF          RUNTYP=ENERGY       EXETYP=RUN     
 MPLEVL=       0     CITYP =NONE         CCTYP =NONE         VBTYP =NONE    
 DFTTYP=PBE          TDDFT =NONE    
 MULT  =       1     ICHARG=       0     NZVAR =       0     COORD =ZMT     
 PP    =NONE         RELWFN=NONE         LOCAL =NONE         NUMGRD=       F
 ISPHER=       1     NOSYM =       0     MAXIT =      30     UNITS =ANGS    
 PLTORB=       F     MOLPLT=       F     AIMPAC=       F     FRIEND=        
 NPRINT=       7     IREST =       0     GEOM  =INPUT   
 NORMF =       0     NORMP =       0     ITOL  =      20     ICUT  =       9
 INTTYP=BEST         GRDTYP=BEST         QMTTOL= 1.0E-06

     $SYSTEM OPTIONS
     ---------------
  REPLICATED MEMORY=     1000000 WORDS (ON EVERY NODE).
 DISTRIBUTED MEMDDI=           0 MILLION WORDS IN AGGREGATE,
 MEMDDI DISTRIBUTED OVER   1 PROCESSORS IS           0 WORDS/PROCESSOR.
 TOTAL MEMORY REQUESTED ON EACH PROCESSOR=     1000000 WORDS.
 TIMLIM=      525600.00 MINUTES, OR     365.0 DAYS.
 PARALL= F  BALTYP=  DLB     KDIAG=    0  COREFL= F
 MXSEQ2=     300 MXSEQ3=     150

          ----------------
          PROPERTIES INPUT
          ----------------

     MOMENTS            FIELD           POTENTIAL          DENSITY
 IEMOM =       1   IEFLD =       0   IEPOT =       0   IEDEN =       0
 WHERE =COMASS     WHERE =NUCLEI     WHERE =NUCLEI     WHERE =NUCLEI  
 OUTPUT=BOTH       OUTPUT=BOTH       OUTPUT=BOTH       OUTPUT=BOTH    
 IEMINT=       0   IEFINT=       0                     IEDINT=       0
                                                       MORB  =       0
          EXTRAPOLATION IN EFFECT
          DIIS IN EFFECT
 ORBITAL PRINTING OPTION: NPREO=     1    49     2     1

     -------------------------------
     INTEGRAL TRANSFORMATION OPTIONS
     -------------------------------
     NWORD  =            0
     CUTOFF = 1.0E-09     MPTRAN =       0
     DIRTRF =       F     AOINTS =DUP     

          ----------------------
          INTEGRAL INPUT OPTIONS
          ----------------------
 NOPK  =       1 NORDER=       0 SCHWRZ=       F

   --- ENCODED Z MATRIX ---
 COORD  TYPE   I   J   K   L   M   N
    1      1    3   1
    2      1    2   1
    3      2    2   1   3

 THE DETERMINANT OF THE G MATRIX IS 10**(    -4)

 THE DETERMINANT OF THE G MATRIX IS 10**(    -4)
 * * * WARNING * * *
 YOUR B MATRIX HAS A SMALL DETERMINANT.
 THIS SUGGESTS YOU MAY HAVE BADLY CHOSEN COORDINATES.

     ------------------------------------------
     THE POINT GROUP IS CNV, NAXIS= 2, ORDER= 4
     ------------------------------------------

 -- VARIATIONAL SPACE WILL BE RESTRICTED TO PURE SPHERICAL HARMONICS ONLY --
 AFTER EXCLUDING CONTAMINANT COMBINATIONS FROM THE CARTESIAN GAUSSIAN BASIS
 SET, THE NUMBER OF SPHERICAL HARMONICS KEPT IN THE VARIATION SPACE IS   46

     DIMENSIONS OF THE SYMMETRY SUBSPACES ARE
 A1  =   19     A2  =    5     B1  =   14     B2  =    8

 ..... DONE SETTING UP THE RUN .....
 STEP CPU TIME =     0.01 TOTAL CPU TIME =        0.0 (    0.0 MIN)
 TOTAL WALL CLOCK TIME=        0.0 SECONDS, CPU UTILIZATION IS  50.00%

          ********************
          1 ELECTRON INTEGRALS
          ********************
 ...... END OF ONE-ELECTRON INTEGRALS ......
 STEP CPU TIME =     0.00 TOTAL CPU TIME =        0.0 (    0.0 MIN)
 TOTAL WALL CLOCK TIME=        0.0 SECONDS, CPU UTILIZATION IS  50.00%

          -------------
          GUESS OPTIONS
          -------------
          GUESS =HUCKEL            NORB  =       0          NORDER=       0
          MIX   =       F          PRTMO =       F          PUNMO =       F
          TOLZ  = 1.0E-08          TOLE  = 1.0E-05
          SYMDEN=       F          PURIFY=       F

 INITIAL GUESS ORBITALS GENERATED BY HUCKEL   ROUTINE.
 HUCKEL GUESS REQUIRES     21583 WORDS.

 STATISTICS FOR GENERATION OF SYMMETRY ORBITAL -Q- MATRIX
 NUMBER OF CARTESIAN ATOMIC ORBITALS=         49
 NUMBER OF SPHERICAL CONTAMINANTS DROPPED=     3
 NUMBER OF LINEARLY DEPENDENT MOS DROPPED=     0
 TOTAL NUMBER OF MOS IN VARIATION SPACE=      46

 SYMMETRIES FOR INITIAL GUESS ORBITALS FOLLOW.   BOTH SET(S).
    16 ORBITALS ARE OCCUPIED (    7 CORE ORBITALS).
     8=?B1      9=?A1     10=A1      11=B1      12=B2      13=A1      14=A2  
    15=B1      16=?A1     17=B2      18=?A1     19=?B1     20=A1      21=A1  
    22=A1      23=A1      24=A1      25=A1      26=A1  
 ...... END OF INITIAL ORBITAL SELECTION ......
 STEP CPU TIME =     0.01 TOTAL CPU TIME =        0.0 (    0.0 MIN)
 TOTAL WALL CLOCK TIME=        0.0 SECONDS, CPU UTILIZATION IS  66.67%

                    ----------------------
                    AO INTEGRAL TECHNOLOGY
                    ----------------------
     S,P,L SHELL ROTATED AXIS INTEGRALS, REPROGRAMMED BY
        KAZUYA ISHIMURA (IMS) AND JOSE SIERRA (SYNSTAR).
     S,P,D,L SHELL ROTATED AXIS INTEGRALS PROGRAMMED BY
        KAZUYA ISHIMURA (INSTITUTE FOR MOLECULAR SCIENCE).
     S,P,D,F,G SHELL TO TOTAL QUARTET ANGULAR MOMENTUM SUM 5,
        ERIC PROGRAM BY GRAHAM FLETCHER (ELORET AND NASA ADVANCED
        SUPERCOMPUTING DIVISION, AMES RESEARCH CENTER).
     S,P,D,F,G,L SHELL GENERAL RYS QUADRATURE PROGRAMMED BY
        MICHEL DUPUIS (PACIFIC NORTHWEST NATIONAL LABORATORY).

          --------------------
          2 ELECTRON INTEGRALS
          --------------------

 THE -PK- OPTION IS OFF, THE INTEGRALS ARE NOT IN SUPERMATRIX FORM.
 STORING   15000 INTEGRALS/RECORD ON DISK, USING 12 BYTES/INTEGRAL.
 TWO ELECTRON INTEGRAL EVALUATION REQUIRES   90606 WORDS OF MEMORY.
 II,JST,KST,LST =  1  1  1  1 NREC =         1 INTLOC =    1
 II,JST,KST,LST =  2  1  1  1 NREC =         1 INTLOC =    2
 II,JST,KST,LST =  3  1  1  1 NREC =         1 INTLOC =    7
 II,JST,KST,LST =  4  1  1  1 NREC =         1 INTLOC =   22
 II,JST,KST,LST =  5  1  1  1 NREC =         1 INTLOC =   56
 II,JST,KST,LST =  6  1  1  1 NREC =         1 INTLOC =  125
 II,JST,KST,LST =  7  1  1  1 NREC =         1 INTLOC =  329
 II,JST,KST,LST =  8  1  1  1 NREC =         1 INTLOC =  776
 II,JST,KST,LST =  9  1  1  1 NREC =         1 INTLOC = 2864
 II,JST,KST,LST = 10  1  1  1 NREC =         1 INTLOC = 2864
 II,JST,KST,LST = 11  1  1  1 NREC =         1 INTLOC = 2864
 II,JST,KST,LST = 12  1  1  1 NREC =         1 INTLOC = 2864
 II,JST,KST,LST = 13  1  1  1 NREC =         1 INTLOC = 2864
 II,JST,KST,LST = 14  1  1  1 NREC =         1 INTLOC = 2864
 II,JST,KST,LST = 15  1  1  1 NREC =         1 INTLOC = 2864
 II,JST,KST,LST = 16  1  1  1 NREC =         1 INTLOC = 4828
 II,JST,KST,LST = 17  1  1  1 NREC =         1 INTLOC = 7829
 II,JST,KST,LST = 18  1  1  1 NREC =         1 INTLOC =12138
 II,JST,KST,LST = 19  1  1  1 NREC =         2 INTLOC =12571
 II,JST,KST,LST = 20  1  1  1 NREC =         4 INTLOC =12270
 TOTAL NUMBER OF NONZERO TWO-ELECTRON INTEGRALS =              149964
         10 INTEGRAL RECORDS WERE STORED ON DISK FILE  8.
  ...... END OF TWO-ELECTRON INTEGRALS .....
 STEP CPU TIME =     0.16 TOTAL CPU TIME =        0.2 (    0.0 MIN)
 TOTAL WALL CLOCK TIME=        0.2 SECONDS, CPU UTILIZATION IS 100.00%

          --------------------------
               R-PBE SCF CALCULATION
          --------------------------

     NUCLEAR ENERGY =        85.0002239160
     MAXIT =   30     NPUNCH=    2
     EXTRAP=T  DAMP=F  SHIFT=F  RSTRCT=F  DIIS=T  DEM=F  SOSCF=F
         DENSITY MATRIX CONVERGENCE THRESHOLD=  1.00E-05
     COARSE -> FINE DFT GRID SWITCH THRESHOLD=  3.00E-04 (SWITCH IN $DFT)
                   HF -> DFT SWITCH THRESHOLD=  5.00E-03 (SWOFF IN $DFT)
     MEMORY REQUIRED FOR RHF ITERS=    183108 WORDS.

 DFT CODE IS SWITCHING FROM THE FINE GRID NRAD= 96,  NLEB=  302
                      TO THE COARSE GRID NRAD0= 24, NLEB0=  110

     EXCHANGE FUNCTIONAL   =PBE       
     CORRELATION FUNCTIONAL=PBE       
     DFT THRESHOLD         =.460E-07
     GRID CHANGE THRESHOLD =.300E-03
 FOR AN EULER-MACLAURIN QUADRATURE USING  96 RADIAL POINTS:
 SMALLEST GAUSSIAN PRIMITIVE EXPONENT=        0.1313100000 OF TYPE -P-
 ON ATOM NUMBER   1 HAS RADIAL NORMALIZATION=  1.000000
  LARGEST GAUSSIAN PRIMITIVE EXPONENT=    55510.0000000000 OF TYPE -S-
 ON ATOM NUMBER   1 HAS RADIAL NORMALIZATION=  0.999999
 DFT IS SWITCHED OFF, PERFORMING PURE SCF UNTIL SWOFF THRESHOLD IS REACHED.

 ITER EX DEM     TOTAL ENERGY        E CHANGE  DENSITY CHANGE    DIIS ERROR
   1  0  0     -545.7928440480  -545.7928440480   0.577279177   0.943413695
   2  1  0     -546.0152579570    -0.2224139089   0.835593821   0.587263510
   3  2  0     -545.6498122587     0.3654456983   0.938563981   0.633349018
   4  3  0     -544.7620071774     0.8878050813   1.076035176   1.009201860
   5  0  0     -544.1800418576     0.5819653198   0.622040188   0.885354582
          * * *   INITIATING DIIS PROCEDURE   * * *
   6  1  0     -546.8409076439    -2.6608657863   0.212105635   0.064113569
   7  2  0     -546.8494033055    -0.0084956616   0.066373386   0.085039612
   8  3  0     -546.8695616536    -0.0201583481   0.029318154   0.020838826
   9  4  0     -546.8726797095    -0.0031180559   0.037061010   0.011773736
  10  5  0     -546.8751407702    -0.0024610607   0.031319325   0.006978027
  11  6  0     -546.8765363768    -0.0013956066   0.027961216   0.004910104
  12  7  0     -546.8772026415    -0.0006662647   0.007104728   0.002124898
  13  8  0     -546.8772654618    -0.0000628203   0.001705521   0.000676035
 CONVERGED TO SWOFF, SO DFT CALCULATION IS NOW SWITCHED ON.
          * * *   INITIATING DIIS PROCEDURE   * * *
  14  9  0     -548.0555783971    -1.1783129353   0.482269049   0.105390063
  15 10  0     -548.0345909359     0.0209874612   0.383637652   0.184853760
  16 11  0     -547.9988682812     0.0357226548   0.167251996   0.259080411
  17 12  0     -548.1370215646    -0.1381532834   0.022617219   0.017042246
  18 13  0     -548.1385764296    -0.0015548650   0.005979666   0.006368661
  19 14  0     -548.1386689957    -0.0000925661   0.001514092   0.000575770
  20 15  0     -548.1386708411    -0.0000018454   0.000343363   0.000176495
  21 16  0     -548.1386709857    -0.0000001446   0.000035571   0.000023430
 DFT CODE IS SWITCHING BACK TO THE FINE GRID
          * * *   INITIATING DIIS PROCEDURE   * * *
  22 17  0     -548.1407550239    -0.0020840382   0.017798418   0.017122082
  23 18  0     -548.1410178614    -0.0002628375   0.022306618   0.006205089
  24 19  0     -548.1399374127     0.0010804487   0.018436126   0.023632591
  25 20  0     -548.1411227483    -0.0011853355   0.001833943   0.001153346
  26 21  0     -548.1411318953    -0.0000091470   0.000159503   0.000144227
  27 22  0     -548.1411319758    -0.0000000805   0.000063256   0.000051438
  28 23  0     -548.1411319836    -0.0000000078   0.000008916   0.000004854
  29 24  0     -548.1411319837    -0.0000000001   0.000000449   0.000000426

          -----------------
          DENSITY CONVERGED
          -----------------
     TIME TO FORM FOCK OPERATORS=       4.2 SECONDS (       0.1 SEC/ITER)
     TIME TO SOLVE SCF EQUATIONS=       0.0 SECONDS (       0.0 SEC/ITER)

 FINAL R-PBE ENERGY IS     -548.1411319837 AFTER  29 ITERATIONS
 DFT EXCHANGE + CORRELATION ENERGY =       -42.1740223910
 TOTAL ELECTRON NUMBER             =        31.9999889547

          ------------
          EIGENVECTORS
          ------------

                      1          2          3          4          5
                  -88.2249   -18.8377   -18.8376    -7.8431    -5.8647
                     A1         B1         A1         A1         B1  
    1  S  1  S    1.002978   0.000000  -0.000046  -0.274139   0.000000
    2  S  1  S   -0.010284   0.000000  -0.000832   1.039466   0.000000
    3  S  1  S    0.001762   0.000000  -0.001470   0.040142   0.000000
    4  S  1  S   -0.000923   0.000000   0.005717  -0.012017   0.000000
    5  S  1  X    0.000000   0.000147   0.000000   0.000000   0.996921
    6  S  1  Y    0.000000   0.000000   0.000000   0.000000   0.000000
    7  S  1  Z    0.000055   0.000000  -0.000041   0.008688   0.000000
    8  S  1  X    0.000000  -0.000743   0.000000   0.000000   0.008788
    9  S  1  Y    0.000000   0.000000   0.000000   0.000000   0.000000
   10  S  1  Z   -0.000004   0.000000   0.000236   0.000573   0.000000
   11  S  1  X    0.000000  -0.006526   0.000000   0.000000  -0.000180
   12  S  1  Y    0.000000   0.000000   0.000000   0.000000   0.000000
   13  S  1  Z   -0.000021   0.000000   0.001264  -0.000355   0.000000
   14  S  1 XX    0.000005   0.000000   0.001453   0.000424   0.000000
   15  S  1 YY   -0.000002   0.000000  -0.000833  -0.000189   0.000000
   16  S  1 ZZ   -0.000003   0.000000  -0.000620  -0.000234   0.000000
   17  S  1 XY    0.000000   0.000000   0.000000   0.000000   0.000000
   18  S  1 XZ    0.000000  -0.000982   0.000000   0.000000   0.000519
   19  S  1 YZ    0.000000   0.000000   0.000000   0.000000   0.000000
   20  O  2  S    0.000001   0.703277   0.703219   0.000029   0.000051
   21  O  2  S    0.000005   0.025538   0.024747   0.000104   0.000099
   22  O  2  S    0.000066  -0.011984  -0.009540   0.000478  -0.000114
   23  O  2  X    0.000011   0.000764   0.000762  -0.000034   0.000005
   24  O  2  Y    0.000000   0.000000   0.000000   0.000000   0.000000
   25  O  2  Z   -0.000005  -0.000289  -0.000097  -0.000014  -0.000017
   26  O  2  X   -0.000023  -0.002717  -0.002325  -0.000447  -0.000104
   27  O  2  Y    0.000000   0.000000   0.000000   0.000000   0.000000
   28  O  2  Z    0.000015   0.001152   0.000293   0.000222   0.000085
   29  O  2 XX   -0.000054  -0.000247  -0.000372  -0.000660  -0.000163
   30  O  2 YY    0.000030   0.000157   0.000217   0.000371   0.000097
   31  O  2 ZZ    0.000024   0.000090   0.000155   0.000289   0.000066
   32  O  2 XY    0.000000   0.000000   0.000000   0.000000   0.000000
   33  O  2 XZ    0.000028   0.000170   0.000169   0.000337   0.000104
   34  O  2 YZ    0.000000   0.000000   0.000000   0.000000   0.000000
   35  O  3  S    0.000001  -0.703277   0.703219   0.000029  -0.000051
   36  O  3  S    0.000005  -0.025538   0.024747   0.000104  -0.000099
   37  O  3  S    0.000066   0.011984  -0.009540   0.000478   0.000114
   38  O  3  X   -0.000011   0.000764  -0.000762   0.000034   0.000005
   39  O  3  Y    0.000000   0.000000   0.000000   0.000000   0.000000
   40  O  3  Z   -0.000005   0.000289  -0.000097  -0.000014   0.000017
   41  O  3  X    0.000023  -0.002717   0.002325   0.000447  -0.000104
   42  O  3  Y    0.000000   0.000000   0.000000   0.000000   0.000000
   43  O  3  Z    0.000015  -0.001152   0.000293   0.000222  -0.000085
   44  O  3 XX   -0.000054   0.000247  -0.000372  -0.000660   0.000163
   45  O  3 YY    0.000030  -0.000157   0.000217   0.000371  -0.000097
   46  O  3 ZZ    0.000024  -0.000090   0.000155   0.000289  -0.000066
   47  O  3 XY    0.000000   0.000000   0.000000   0.000000   0.000000
   48  O  3 XZ   -0.000028   0.000170  -0.000169  -0.000337   0.000104
   49  O  3 YZ    0.000000   0.000000   0.000000   0.000000   0.000000

                      6          7          8          9         10
                   -5.8620    -5.8602    -0.9253    -0.8927    -0.6566
                     B2         A1         A1         B1         A1  
    1  S  1  S    0.000000   0.002403   0.040705   0.000000   0.075199
    2  S  1  S    0.000000  -0.009149  -0.120503   0.000000  -0.215801
    3  S  1  S    0.000000   0.000001   0.238130   0.000000   0.467391
    4  S  1  S    0.000000  -0.000327   0.185118   0.000000   0.448004
    5  S  1  X    0.000000   0.000000   0.000000   0.076426   0.000000
    6  S  1  Y    0.996972   0.000000   0.000000   0.000000   0.000000
    7  S  1  Z    0.000000   0.996965  -0.021694   0.000000  -0.000467
    8  S  1  X    0.000000   0.000000   0.000000  -0.153476   0.000000
    9  S  1  Y    0.008690   0.000000   0.000000   0.000000   0.000000
   10  S  1  Z    0.000000   0.008582   0.045693   0.000000   0.006632
   11  S  1  X    0.000000   0.000000   0.000000  -0.027484   0.000000
   12  S  1  Y   -0.000123   0.000000   0.000000   0.000000   0.000000
   13  S  1  Z    0.000000  -0.000139   0.009586   0.000000  -0.007873
   14  S  1 XX    0.000000  -0.000395   0.038908   0.000000  -0.011812
   15  S  1 YY    0.000000  -0.000221  -0.021746   0.000000   0.007860
   16  S  1 ZZ    0.000000   0.000616  -0.017162   0.000000   0.003952
   17  S  1 XY    0.000000   0.000000   0.000000   0.000000   0.000000
   18  S  1 XZ    0.000000   0.000000   0.000000  -0.022667   0.000000
   19  S  1 YZ    0.000487   0.000000   0.000000   0.000000   0.000000
   20  O  2  S    0.000000  -0.000022  -0.134897  -0.153441   0.092828
   21  O  2  S    0.000000  -0.000103   0.272081   0.309069  -0.193714
   22  O  2  S    0.000000   0.000221   0.335726   0.397085  -0.291291
   23  O  2  X    0.000000   0.000003   0.069617   0.060658   0.099645
   24  O  2  Y    0.000001   0.000000   0.000000   0.000000   0.000000
   25  O  2  Z    0.000000   0.000003  -0.016616  -0.015334  -0.023693
   26  O  2  X    0.000000   0.000158   0.034620   0.036877   0.044886
   27  O  2  Y   -0.000041   0.000000   0.000000   0.000000   0.000000
   28  O  2  Z    0.000000  -0.000094  -0.008228  -0.009934  -0.007777
   29  O  2 XX    0.000000   0.000090   0.009057   0.008155   0.006572
   30  O  2 YY    0.000000  -0.000053  -0.003560  -0.002971  -0.004551
   31  O  2 ZZ    0.000000  -0.000037  -0.005496  -0.005183  -0.002021
   32  O  2 XY   -0.000017   0.000000   0.000000   0.000000   0.000000
   33  O  2 XZ    0.000000  -0.000069  -0.002169  -0.002098  -0.004009
   34  O  2 YZ    0.000001   0.000000   0.000000   0.000000   0.000000
   35  O  3  S    0.000000  -0.000022  -0.134897   0.153441   0.092828
   36  O  3  S    0.000000  -0.000103   0.272081  -0.309069  -0.193714
   37  O  3  S    0.000000   0.000221   0.335726  -0.397085  -0.291291
   38  O  3  X    0.000000  -0.000003  -0.069617   0.060658  -0.099645
   39  O  3  Y    0.000001   0.000000   0.000000   0.000000   0.000000
   40  O  3  Z    0.000000   0.000003  -0.016616   0.015334  -0.023693
   41  O  3  X    0.000000  -0.000158  -0.034620   0.036877  -0.044886
   42  O  3  Y   -0.000041   0.000000   0.000000   0.000000   0.000000
   43  O  3  Z    0.000000  -0.000094  -0.008228   0.009934  -0.007777
   44  O  3 XX    0.000000   0.000090   0.009057  -0.008155   0.006572
   45  O  3 YY    0.000000  -0.000053  -0.003560   0.002971  -0.004551
   46  O  3 ZZ    0.000000  -0.000037  -0.005496   0.005183  -0.002021
   47  O  3 XY    0.000017   0.000000   0.000000   0.000000   0.000000
   48  O  3 XZ    0.000000   0.000069   0.002169  -0.002098   0.004009
   49  O  3 YZ    0.000001   0.000000   0.000000   0.000000   0.000000

                     11         12         13         14         15
                   -0.4332    -0.3829    -0.3827    -0.3142    -0.3069
                     B1         B2         A1         A2         B1  
    1  S  1  S    0.000000   0.000000  -0.009233   0.000000   0.000000
    2  S  1  S    0.000000   0.000000   0.032572   0.000000   0.000000
    3  S  1  S    0.000000   0.000000  -0.050655   0.000000   0.000000
    4  S  1  S    0.000000   0.000000  -0.119353   0.000000   0.000000
    5  S  1  X   -0.181997   0.000000   0.000000   0.000000  -0.019471
    6  S  1  Y    0.000000  -0.208546   0.000000   0.000000   0.000000
    7  S  1  Z    0.000000   0.000000  -0.209156   0.000000   0.000000
    8  S  1  X    0.429262   0.000000   0.000000   0.000000   0.043655
    9  S  1  Y    0.000000   0.491186   0.000000   0.000000   0.000000
   10  S  1  Z    0.000000   0.000000   0.491799   0.000000   0.000000
   11  S  1  X    0.105854   0.000000   0.000000   0.000000   0.075058
   12  S  1  Y    0.000000   0.327197   0.000000   0.000000   0.000000
   13  S  1  Z    0.000000   0.000000   0.316067   0.000000   0.000000
   14  S  1 XX    0.000000   0.000000  -0.001169   0.000000   0.000000
   15  S  1 YY    0.000000   0.000000  -0.017726   0.000000   0.000000
   16  S  1 ZZ    0.000000   0.000000   0.018895   0.000000   0.000000
   17  S  1 XY    0.000000   0.000000   0.000000  -0.078476   0.000000
   18  S  1 XZ    0.026685   0.000000   0.000000   0.000000  -0.074581
   19  S  1 YZ    0.000000   0.021027   0.000000   0.000000   0.000000
   20  O  2  S   -0.051928   0.000000   0.010061   0.000000  -0.003032
   21  O  2  S    0.115482   0.000000  -0.019551   0.000000   0.002280
   22  O  2  S    0.172568   0.000000  -0.044316   0.000000   0.034113
   23  O  2  X   -0.344373   0.000000   0.188910   0.000000   0.157008
   24  O  2  Y    0.000000   0.290711   0.000000   0.472495   0.000000
   25  O  2  Z    0.093709   0.000000   0.220977   0.000000   0.443271
   26  O  2  X   -0.219563   0.000000   0.120276   0.000000   0.119342
   27  O  2  Y    0.000000   0.182440   0.000000   0.336094   0.000000
   28  O  2  Z    0.062682   0.000000   0.139439   0.000000   0.312192
   29  O  2 XX   -0.013175   0.000000   0.009674   0.000000   0.005629
   30  O  2 YY    0.008153   0.000000  -0.002540   0.000000   0.000094
   31  O  2 ZZ    0.005022   0.000000  -0.007134   0.000000  -0.005723
   32  O  2 XY    0.000000   0.013496   0.000000   0.012577   0.000000
   33  O  2 XZ    0.008302   0.000000   0.009266   0.000000   0.011174
   34  O  2 YZ    0.000000  -0.003400   0.000000  -0.003482   0.000000
   35  O  3  S    0.051928   0.000000   0.010061   0.000000   0.003032
   36  O  3  S   -0.115482   0.000000  -0.019551   0.000000  -0.002280
   37  O  3  S   -0.172568   0.000000  -0.044316   0.000000  -0.034113
   38  O  3  X   -0.344373   0.000000  -0.188910   0.000000   0.157008
   39  O  3  Y    0.000000   0.290711   0.000000  -0.472495   0.000000
   40  O  3  Z   -0.093709   0.000000   0.220977   0.000000  -0.443271
   41  O  3  X   -0.219563   0.000000  -0.120276   0.000000   0.119342
   42  O  3  Y    0.000000   0.182440   0.000000  -0.336094   0.000000
   43  O  3  Z   -0.062682   0.000000   0.139439   0.000000  -0.312192
   44  O  3 XX    0.013175   0.000000   0.009674   0.000000  -0.005629
   45  O  3 YY   -0.008153   0.000000  -0.002540   0.000000  -0.000094
   46  O  3 ZZ   -0.005022   0.000000  -0.007134   0.000000   0.005723
   47  O  3 XY    0.000000  -0.013496   0.000000   0.012577   0.000000
   48  O  3 XZ    0.008302   0.000000  -0.009266   0.000000   0.011174
   49  O  3 YZ    0.000000  -0.003400   0.000000   0.003482   0.000000

                     16         17         18         19         20
                   -0.2780    -0.2345    -0.2052    -0.0224     0.3304
                     A1         B2         A1         B1         B1  
    1  S  1  S    0.022764   0.000000   0.017360   0.000000   0.000000
    2  S  1  S   -0.086706   0.000000  -0.054276   0.000000   0.000000
    3  S  1  S    0.120282   0.000000   0.109574   0.000000   0.000000
    4  S  1  S    0.381437   0.000000   0.254554   0.000000   0.000000
    5  S  1  X    0.000000   0.000000   0.000000  -0.240478   0.249561
    6  S  1  Y    0.000000  -0.200736   0.000000   0.000000   0.000000
    7  S  1  Z    0.055491   0.000000  -0.192443   0.000000   0.000000
    8  S  1  X    0.000000   0.000000   0.000000   0.628834  -0.985329
    9  S  1  Y    0.000000   0.499180   0.000000   0.000000   0.000000
   10  S  1  Z   -0.136348   0.000000   0.482839   0.000000   0.000000
   11  S  1  X    0.000000   0.000000   0.000000   0.822722   1.673968
   12  S  1  Y    0.000000   0.360023   0.000000   0.000000   0.000000
   13  S  1  Z   -0.043507   0.000000   0.390170   0.000000   0.000000
   14  S  1 XX   -0.119818   0.000000  -0.074739   0.000000   0.000000
   15  S  1 YY    0.057298   0.000000   0.048874   0.000000   0.000000
   16  S  1 ZZ    0.062520   0.000000   0.025865   0.000000   0.000000
   17  S  1 XY    0.000000   0.000000   0.000000   0.000000   0.000000
   18  S  1 XZ    0.000000   0.000000   0.000000  -0.098164  -0.189308
   19  S  1 YZ    0.000000  -0.010420   0.000000   0.000000   0.000000
   20  O  2  S    0.000265   0.000000   0.014349  -0.052561  -0.026585
   21  O  2  S    0.000728   0.000000  -0.029823   0.101319  -0.001473
   22  O  2  S   -0.031655   0.000000  -0.095077   0.402546   0.584831
   23  O  2  X   -0.295008   0.000000  -0.335937   0.309842  -0.231855
   24  O  2  Y    0.000000  -0.399343   0.000000   0.000000   0.000000
   25  O  2  Z    0.364747   0.000000  -0.231454  -0.181675  -0.052380
   26  O  2  X   -0.214248   0.000000  -0.257489   0.335919   0.283843
   27  O  2  Y    0.000000  -0.292969   0.000000   0.000000   0.000000
   28  O  2  Z    0.260381   0.000000  -0.170264  -0.154382  -0.080703
   29  O  2 XX   -0.004507   0.000000  -0.001047  -0.000305   0.049322
   30  O  2 YY    0.003932   0.000000   0.001145   0.002182  -0.024347
   31  O  2 ZZ    0.000574   0.000000  -0.000098  -0.001878  -0.024974
   32  O  2 XY    0.000000  -0.000280   0.000000   0.000000   0.000000
   33  O  2 XZ    0.008248   0.000000   0.003113   0.006841  -0.011824
   34  O  2 YZ    0.000000   0.000069   0.000000   0.000000   0.000000
   35  O  3  S    0.000265   0.000000   0.014349   0.052561   0.026585
   36  O  3  S    0.000728   0.000000  -0.029823  -0.101319   0.001473
   37  O  3  S   -0.031655   0.000000  -0.095077  -0.402546  -0.584831
   38  O  3  X    0.295008   0.000000   0.335937   0.309842  -0.231855
   39  O  3  Y    0.000000  -0.399343   0.000000   0.000000   0.000000
   40  O  3  Z    0.364747   0.000000  -0.231454   0.181675   0.052380
   41  O  3  X    0.214248   0.000000   0.257489   0.335919   0.283843
   42  O  3  Y    0.000000  -0.292969   0.000000   0.000000   0.000000
   43  O  3  Z    0.260381   0.000000  -0.170264   0.154382   0.080703
   44  O  3 XX   -0.004507   0.000000  -0.001047   0.000305  -0.049322
   45  O  3 YY    0.003932   0.000000   0.001145  -0.002182   0.024347
   46  O  3 ZZ    0.000574   0.000000  -0.000098   0.001878   0.024974
   47  O  3 XY    0.000000   0.000280   0.000000   0.000000   0.000000
   48  O  3 XZ   -0.008248   0.000000  -0.003113   0.006841  -0.011824
   49  O  3 YZ    0.000000   0.000069   0.000000   0.000000   0.000000

                     21         22         23         24         25
                    0.3677     0.3698     0.3891     0.4645     0.4997
                     A1         B2         A1         A2         B2  
    1  S  1  S   -0.037044   0.000000  -0.103780   0.000000   0.000000
    2  S  1  S   -0.156360   0.000000  -0.357419   0.000000   0.000000
    3  S  1  S   -0.600629   0.000000  -1.581067   0.000000   0.000000
    4  S  1  S    0.821076   0.000000   1.822372   0.000000   0.000000
    5  S  1  X    0.000000   0.000000   0.000000   0.000000   0.000000
    6  S  1  Y    0.000000   0.296044   0.000000   0.000000   0.029668
    7  S  1  Z    0.271469   0.000000  -0.110772   0.000000   0.000000
    8  S  1  X    0.000000   0.000000   0.000000   0.000000   0.000000
    9  S  1  Y    0.000000  -1.144562   0.000000   0.000000  -0.108538
   10  S  1  Z   -1.051247   0.000000   0.426534   0.000000   0.000000
   11  S  1  X    0.000000   0.000000   0.000000   0.000000   0.000000
   12  S  1  Y    0.000000   1.226264   0.000000   0.000000   0.067803
   13  S  1  Z    1.190620   0.000000  -0.398669   0.000000   0.000000
   14  S  1 XX   -0.093353   0.000000  -0.290076   0.000000   0.000000
   15  S  1 YY    0.138426   0.000000   0.122684   0.000000   0.000000
   16  S  1 ZZ   -0.045073   0.000000   0.167392   0.000000   0.000000
   17  S  1 XY    0.000000   0.000000   0.000000   0.840912   0.000000
   18  S  1 XZ    0.000000   0.000000   0.000000   0.000000   0.000000
   19  S  1 YZ    0.000000  -0.101011   0.000000   0.000000   0.977520
   20  O  2  S    0.009551   0.000000   0.008540   0.000000   0.000000
   21  O  2  S   -0.005042   0.000000  -0.017254   0.000000   0.000000
   22  O  2  S   -0.197901   0.000000  -0.150250   0.000000   0.000000
   23  O  2  X    0.056735   0.000000   0.077541   0.000000   0.000000
   24  O  2  Y    0.000000  -0.104442   0.000000   0.343706  -0.121814
   25  O  2  Z   -0.138994   0.000000  -0.041514   0.000000   0.000000
   26  O  2  X   -0.141904   0.000000  -0.113062   0.000000   0.000000
   27  O  2  Y    0.000000  -0.079045   0.000000  -0.208910   0.076551
   28  O  2  Z   -0.032061   0.000000   0.079381   0.000000   0.000000
   29  O  2 XX   -0.028936   0.000000  -0.033014   0.000000   0.000000
   30  O  2 YY    0.016444   0.000000   0.021077   0.000000   0.000000
   31  O  2 ZZ    0.012492   0.000000   0.011938   0.000000   0.000000
   32  O  2 XY    0.000000  -0.007938   0.000000  -0.053135   0.019972
   33  O  2 XZ    0.009543   0.000000   0.028113   0.000000   0.000000
   34  O  2 YZ    0.000000   0.000810   0.000000   0.017331   0.010220
   35  O  3  S    0.009551   0.000000   0.008540   0.000000   0.000000
   36  O  3  S   -0.005042   0.000000  -0.017254   0.000000   0.000000
   37  O  3  S   -0.197901   0.000000  -0.150250   0.000000   0.000000
   38  O  3  X   -0.056735   0.000000  -0.077541   0.000000   0.000000
   39  O  3  Y    0.000000  -0.104442   0.000000  -0.343706  -0.121814
   40  O  3  Z   -0.138994   0.000000  -0.041514   0.000000   0.000000
   41  O  3  X    0.141904   0.000000   0.113062   0.000000   0.000000
   42  O  3  Y    0.000000  -0.079045   0.000000   0.208910   0.076551
   43  O  3  Z   -0.032061   0.000000   0.079381   0.000000   0.000000
   44  O  3 XX   -0.028936   0.000000  -0.033014   0.000000   0.000000
   45  O  3 YY    0.016444   0.000000   0.021077   0.000000   0.000000
   46  O  3 ZZ    0.012492   0.000000   0.011938   0.000000   0.000000
   47  O  3 XY    0.000000   0.007938   0.000000  -0.053135  -0.019972
   48  O  3 XZ   -0.009543   0.000000  -0.028113   0.000000   0.000000
   49  O  3 YZ    0.000000   0.000810   0.000000  -0.017331   0.010220

                     26         27         28         29         30
                    0.4998     0.5427     0.7005     0.7882     0.7994
                     A1         B1         A1         B1         A2  
    1  S  1  S    0.003191   0.000000  -0.034944   0.000000   0.000000
    2  S  1  S    0.010364   0.000000  -0.208331   0.000000   0.000000
    3  S  1  S    0.047850   0.000000  -0.642542   0.000000   0.000000
    4  S  1  S   -0.053859   0.000000   1.261948   0.000000   0.000000
    5  S  1  X    0.000000   0.038476   0.000000  -0.060588   0.000000
    6  S  1  Y    0.000000   0.000000   0.000000   0.000000   0.000000
    7  S  1  Z    0.031943   0.000000  -0.007880   0.000000   0.000000
    8  S  1  X    0.000000  -0.196377   0.000000   0.317570   0.000000
    9  S  1  Y    0.000000   0.000000   0.000000   0.000000   0.000000
   10  S  1  Z   -0.116976   0.000000   0.017940   0.000000   0.000000
   11  S  1  X    0.000000   0.819218   0.000000  -0.100838   0.000000
   12  S  1  Y    0.000000   0.000000   0.000000   0.000000   0.000000
   13  S  1  Z    0.073586   0.000000   0.274090   0.000000   0.000000
   14  S  1 XX   -0.063130   0.000000   0.863305   0.000000   0.000000
   15  S  1 YY   -0.810623   0.000000  -0.537519   0.000000   0.000000
   16  S  1 ZZ    0.873753   0.000000  -0.325786   0.000000   0.000000
   17  S  1 XY    0.000000   0.000000   0.000000   0.000000   0.557046
   18  S  1 XZ    0.000000   0.832856   0.000000   0.440794   0.000000
   19  S  1 YZ    0.000000   0.000000   0.000000   0.000000   0.000000
   20  O  2  S   -0.000822  -0.040862   0.058529  -0.014988   0.000000
   21  O  2  S    0.004701   0.170730  -0.341455   0.101345   0.000000
   22  O  2  S   -0.001155   0.251621  -0.070419  -0.053616   0.000000
   23  O  2  X   -0.029596   0.079038   0.132795  -0.399471   0.000000
   24  O  2  Y    0.000000   0.000000   0.000000   0.000000  -0.550837
   25  O  2  Z   -0.125566   0.293938   0.142557  -0.395663   0.000000
   26  O  2  X    0.025875   0.227844  -0.628614   0.619543   0.000000
   27  O  2  Y    0.000000   0.000000   0.000000   0.000000   0.727349
   28  O  2  Z    0.075296  -0.312910  -0.035497   0.481400   0.000000
   29  O  2 XX    0.008259  -0.021777   0.024985  -0.054958   0.000000
   30  O  2 YY   -0.012769  -0.002347  -0.022235   0.020708   0.000000
   31  O  2 ZZ    0.004510   0.024123  -0.002750   0.034250   0.000000
   32  O  2 XY    0.000000   0.000000   0.000000   0.000000  -0.053495
   33  O  2 XZ    0.019188  -0.042642  -0.034012  -0.011909   0.000000
   34  O  2 YZ    0.000000   0.000000   0.000000   0.000000   0.017027
   35  O  3  S   -0.000822   0.040862   0.058529   0.014988   0.000000
   36  O  3  S    0.004701  -0.170730  -0.341455  -0.101345   0.000000
   37  O  3  S   -0.001155  -0.251621  -0.070419   0.053616   0.000000
   38  O  3  X    0.029596   0.079038  -0.132795  -0.399471   0.000000
   39  O  3  Y    0.000000   0.000000   0.000000   0.000000   0.550837
   40  O  3  Z   -0.125566  -0.293938   0.142557   0.395663   0.000000
   41  O  3  X   -0.025875   0.227844   0.628614   0.619543   0.000000
   42  O  3  Y    0.000000   0.000000   0.000000   0.000000  -0.727349
   43  O  3  Z    0.075296   0.312910  -0.035497  -0.481400   0.000000
   44  O  3 XX    0.008259   0.021777   0.024985   0.054958   0.000000
   45  O  3 YY   -0.012769   0.002347  -0.022235  -0.020708   0.000000
   46  O  3 ZZ    0.004510  -0.024123  -0.002750  -0.034250   0.000000
   47  O  3 XY    0.000000   0.000000   0.000000   0.000000  -0.053495
   48  O  3 XZ   -0.019188  -0.042642   0.034012  -0.011909   0.000000
   49  O  3 YZ    0.000000   0.000000   0.000000   0.000000  -0.017027

                     31         32         33         34         35
                    0.8100     0.8105     0.8273     0.8380     1.4775
                     A1         B2         B1         A1         A1  
    1  S  1  S    0.024405   0.000000   0.000000  -0.028370  -0.022206
    2  S  1  S    0.062566   0.000000   0.000000  -0.092533  -0.232469
    3  S  1  S    0.357728   0.000000   0.000000  -0.437249  -0.527588
    4  S  1  S    0.017153   0.000000   0.000000   0.207774   1.429007
    5  S  1  X    0.000000   0.000000  -0.092420   0.000000   0.000000
    6  S  1  Y    0.000000  -0.030037   0.000000   0.000000   0.000000
    7  S  1  Z   -0.041213   0.000000   0.000000  -0.004260  -0.007336
    8  S  1  X    0.000000   0.000000   0.484161   0.000000   0.000000
    9  S  1  Y    0.000000   0.159773   0.000000   0.000000   0.000000
   10  S  1  Z    0.219070   0.000000   0.000000   0.016659   0.026962
   11  S  1  X    0.000000   0.000000  -0.106923   0.000000   0.000000
   12  S  1  Y    0.000000  -0.545846   0.000000   0.000000   0.000000
   13  S  1  Z   -0.393154   0.000000   0.000000  -0.306067   0.317478
   14  S  1 XX    0.044115   0.000000   0.000000   0.436234   0.430534
   15  S  1 YY    0.094498   0.000000   0.000000  -0.132541  -0.252718
   16  S  1 ZZ   -0.138614   0.000000   0.000000  -0.303694  -0.177816
   17  S  1 XY    0.000000   0.000000   0.000000   0.000000   0.000000
   18  S  1 XZ    0.000000   0.000000  -0.316579   0.000000   0.000000
   19  S  1 YZ    0.000000  -0.187366   0.000000   0.000000   0.000000
   20  O  2  S    0.007721   0.000000  -0.011754   0.004571  -0.015734
   21  O  2  S   -0.067770   0.000000   0.138763   0.026163   1.091454
   22  O  2  S    0.062435   0.000000  -0.128158  -0.066707  -1.423058
   23  O  2  X    0.322015   0.000000  -0.432146  -0.523655   0.115355
   24  O  2  Y    0.000000  -0.621043   0.000000   0.000000   0.000000
   25  O  2  Z   -0.530137   0.000000   0.399582  -0.282429   0.018357
   26  O  2  X   -0.425076   0.000000   0.569412   0.560489  -0.559955
   27  O  2  Y    0.000000   0.843087   0.000000   0.000000   0.000000
   28  O  2  Z    0.710079   0.000000  -0.530379   0.446907   0.042262
   29  O  2 XX    0.023566   0.000000  -0.018493  -0.008732   0.180695
   30  O  2 YY   -0.013691   0.000000   0.020242  -0.002698  -0.105126
   31  O  2 ZZ   -0.009874   0.000000  -0.001749   0.011430  -0.075569
   32  O  2 XY    0.000000  -0.023013   0.000000   0.000000   0.000000
   33  O  2 XZ   -0.025794   0.000000   0.045659  -0.036264  -0.084698
   34  O  2 YZ    0.000000   0.001641   0.000000   0.000000   0.000000
   35  O  3  S    0.007721   0.000000   0.011754   0.004571  -0.015734
   36  O  3  S   -0.067770   0.000000  -0.138763   0.026163   1.091454
   37  O  3  S    0.062435   0.000000   0.128158  -0.066707  -1.423058
   38  O  3  X   -0.322015   0.000000  -0.432146   0.523655  -0.115355
   39  O  3  Y    0.000000  -0.621043   0.000000   0.000000   0.000000
   40  O  3  Z   -0.530137   0.000000  -0.399582  -0.282429   0.018357
   41  O  3  X    0.425076   0.000000   0.569412  -0.560489   0.559955
   42  O  3  Y    0.000000   0.843087   0.000000   0.000000   0.000000
   43  O  3  Z    0.710079   0.000000   0.530379   0.446907   0.042262
   44  O  3 XX    0.023566   0.000000   0.018493  -0.008732   0.180695
   45  O  3 YY   -0.013691   0.000000  -0.020242  -0.002698  -0.105126
   46  O  3 ZZ   -0.009874   0.000000   0.001749   0.011430  -0.075569
   47  O  3 XY    0.000000   0.023013   0.000000   0.000000   0.000000
   48  O  3 XZ    0.025794   0.000000   0.045659   0.036264   0.084698
   49  O  3 YZ    0.000000   0.001641   0.000000   0.000000   0.000000

                     36         37         38         39         40
                    1.6723     2.0767     2.0768     2.0806     2.0809
                     B1         B1         A2         B2         A1  
    1  S  1  S    0.000000   0.000000   0.000000   0.000000  -0.000225
    2  S  1  S    0.000000   0.000000   0.000000   0.000000  -0.003789
    3  S  1  S    0.000000   0.000000   0.000000   0.000000  -0.007157
    4  S  1  S    0.000000   0.000000   0.000000   0.000000   0.022924
    5  S  1  X   -0.025396  -0.000973   0.000000   0.000000   0.000000
    6  S  1  Y    0.000000   0.000000   0.000000   0.002889   0.000000
    7  S  1  Z    0.000000   0.000000   0.000000   0.000000  -0.000980
    8  S  1  X    0.074526   0.002048   0.000000   0.000000   0.000000
    9  S  1  Y    0.000000   0.000000   0.000000  -0.001622   0.000000
   10  S  1  Z    0.000000   0.000000   0.000000   0.000000   0.000656
   11  S  1  X    1.378277   0.011103   0.000000   0.000000   0.000000
   12  S  1  Y    0.000000   0.000000   0.000000  -0.036061   0.000000
   13  S  1  Z    0.000000   0.000000   0.000000   0.000000   0.017742
   14  S  1 XX    0.000000   0.000000   0.000000   0.000000   0.002539
   15  S  1 YY    0.000000   0.000000   0.000000   0.000000  -0.042021
   16  S  1 ZZ    0.000000   0.000000   0.000000   0.000000   0.039482
   17  S  1 XY    0.000000   0.000000   0.028902   0.000000   0.000000
   18  S  1 XZ    0.256879  -0.029037   0.000000   0.000000   0.000000
   19  S  1 YZ    0.000000   0.000000   0.000000  -0.057084   0.000000
   20  O  2  S    0.007750   0.000375   0.000000   0.000000   0.000387
   21  O  2  S   -1.210456  -0.006217   0.000000   0.000000   0.011286
   22  O  2  S    1.829370   0.008178   0.000000   0.000000  -0.019564
   23  O  2  X   -0.102397  -0.001050   0.000000   0.000000   0.003281
   24  O  2  Y    0.000000   0.000000  -0.004263  -0.010644   0.000000
   25  O  2  Z    0.077131   0.005327   0.000000   0.000000   0.004266
   26  O  2  X    0.555664   0.000827   0.000000   0.000000  -0.012371
   27  O  2  Y    0.000000   0.000000   0.007215   0.020927   0.000000
   28  O  2  Z   -0.262084  -0.008495   0.000000   0.000000  -0.007885
   29  O  2 XX   -0.179047  -0.092876   0.000000   0.000000  -0.063953
   30  O  2 YY    0.094338   0.602319   0.000000   0.000000   0.611892
   31  O  2 ZZ    0.084710  -0.509442   0.000000   0.000000  -0.547939
   32  O  2 XY    0.000000   0.000000   0.285090   0.335676   0.000000
   33  O  2 XZ    0.073918  -0.281873   0.000000   0.000000  -0.217810
   34  O  2 YZ    0.000000   0.000000   0.647144   0.622572   0.000000
   35  O  3  S   -0.007750  -0.000375   0.000000   0.000000   0.000387
   36  O  3  S    1.210456   0.006217   0.000000   0.000000   0.011286
   37  O  3  S   -1.829370  -0.008178   0.000000   0.000000  -0.019564
   38  O  3  X   -0.102397  -0.001050   0.000000   0.000000  -0.003281
   39  O  3  Y    0.000000   0.000000   0.004263  -0.010644   0.000000
   40  O  3  Z   -0.077131  -0.005327   0.000000   0.000000   0.004266
   41  O  3  X    0.555664   0.000827   0.000000   0.000000   0.012371
   42  O  3  Y    0.000000   0.000000  -0.007215   0.020927   0.000000
   43  O  3  Z    0.262084   0.008495   0.000000   0.000000  -0.007885
   44  O  3 XX    0.179047   0.092876   0.000000   0.000000  -0.063953
   45  O  3 YY   -0.094338  -0.602319   0.000000   0.000000   0.611892
   46  O  3 ZZ   -0.084710   0.509442   0.000000   0.000000  -0.547939
   47  O  3 XY    0.000000   0.000000   0.285090  -0.335676   0.000000
   48  O  3 XZ    0.073918  -0.281873   0.000000   0.000000   0.217810
   49  O  3 YZ    0.000000   0.000000  -0.647144   0.622572   0.000000

                     41         42         43         44         45
                    2.0850     2.1028     2.1234     2.1443     2.3537
                     B2         A1         B1         A2         B1  
    1  S  1  S    0.000000  -0.001533   0.000000   0.000000   0.000000
    2  S  1  S    0.000000   0.020910   0.000000   0.000000   0.000000
    3  S  1  S    0.000000   0.008925   0.000000   0.000000   0.000000
    4  S  1  S    0.000000  -0.131157   0.000000   0.000000   0.000000
    5  S  1  X    0.000000   0.000000   0.033928   0.000000  -0.135470
    6  S  1  Y    0.013377   0.000000   0.000000   0.000000   0.000000
    7  S  1  Z    0.000000   0.018654   0.000000   0.000000   0.000000
    8  S  1  X    0.000000   0.000000  -0.120293   0.000000   0.506692
    9  S  1  Y   -0.012810   0.000000   0.000000   0.000000   0.000000
   10  S  1  Z    0.000000  -0.032960   0.000000   0.000000   0.000000
   11  S  1  X    0.000000   0.000000  -0.082096   0.000000   0.377206
   12  S  1  Y   -0.136719   0.000000   0.000000   0.000000   0.000000
   13  S  1  Z    0.000000  -0.160439   0.000000   0.000000   0.000000
   14  S  1 XX    0.000000   0.026719   0.000000   0.000000   0.000000
   15  S  1 YY    0.000000   0.050092   0.000000   0.000000   0.000000
   16  S  1 ZZ    0.000000  -0.076810   0.000000   0.000000   0.000000
   17  S  1 XY    0.000000   0.000000   0.000000   0.261733   0.000000
   18  S  1 XZ    0.000000   0.000000   0.172633   0.000000   0.323295
   19  S  1 YZ   -0.060946   0.000000   0.000000   0.000000   0.000000
   20  O  2  S    0.000000   0.000830  -0.000209   0.000000  -0.006217
   21  O  2  S    0.000000  -0.087391   0.089953   0.000000  -0.437357
   22  O  2  S    0.000000   0.126218  -0.131611   0.000000   0.693343
   23  O  2  X    0.000000  -0.039031   0.027849   0.000000  -0.099510
   24  O  2  Y   -0.036951   0.000000   0.000000  -0.033901   0.000000
   25  O  2  Z    0.000000  -0.033492  -0.038207   0.000000   0.022618
   26  O  2  X    0.000000   0.094140  -0.063033   0.000000   0.399701
   27  O  2  Y    0.068301   0.000000   0.000000   0.065338   0.000000
   28  O  2  Z    0.000000   0.060100   0.071329   0.000000  -0.095947
   29  O  2 XX    0.000000   0.396749   0.151353   0.000000   0.688695
   30  O  2 YY    0.000000  -0.011389   0.180639   0.000000  -0.324498
   31  O  2 ZZ    0.000000  -0.385360  -0.331992   0.000000  -0.364196
   32  O  2 XY    0.626791   0.000000   0.000000   0.650054   0.000000
   33  O  2 XZ    0.000000   0.548786   0.625420   0.000000  -0.171563
   34  O  2 YZ   -0.335744   0.000000   0.000000  -0.285520   0.000000
   35  O  3  S    0.000000   0.000830   0.000209   0.000000   0.006217
   36  O  3  S    0.000000  -0.087391  -0.089953   0.000000   0.437357
   37  O  3  S    0.000000   0.126218   0.131611   0.000000  -0.693343
   38  O  3  X    0.000000   0.039031   0.027849   0.000000  -0.099510
   39  O  3  Y   -0.036951   0.000000   0.000000   0.033901   0.000000
   40  O  3  Z    0.000000  -0.033492   0.038207   0.000000  -0.022618
   41  O  3  X    0.000000  -0.094140  -0.063033   0.000000   0.399701
   42  O  3  Y    0.068301   0.000000   0.000000  -0.065338   0.000000
   43  O  3  Z    0.000000   0.060100  -0.071329   0.000000   0.095947
   44  O  3 XX    0.000000   0.396749  -0.151353   0.000000  -0.688695
   45  O  3 YY    0.000000  -0.011389  -0.180639   0.000000   0.324498
   46  O  3 ZZ    0.000000  -0.385360   0.331992   0.000000   0.364196
   47  O  3 XY   -0.626791   0.000000   0.000000   0.650054   0.000000
   48  O  3 XZ    0.000000  -0.548786   0.625420   0.000000  -0.171563
   49  O  3 YZ   -0.335744   0.000000   0.000000   0.285520   0.000000

                     46
                    2.5091
                     A1  
    1  S  1  S    0.006881
    2  S  1  S   -0.154939
    3  S  1  S   -0.117165
    4  S  1  S    0.935717
    5  S  1  X    0.000000
    6  S  1  Y    0.000000
    7  S  1  Z   -0.038119
    8  S  1  X    0.000000
    9  S  1  Y    0.000000
   10  S  1  Z    0.148325
   11  S  1  X    0.000000
   12  S  1  Y    0.000000
   13  S  1  Z    0.106979
   14  S  1 XX    0.658881
   15  S  1 YY   -0.357047
   16  S  1 ZZ   -0.301833
   17  S  1 XY    0.000000
   18  S  1 XZ    0.000000
   19  S  1 YZ    0.000000
   20  O  2  S    0.012467
   21  O  2  S    0.463979
   22  O  2  S   -0.758760
   23  O  2  X    0.080412
   24  O  2  Y    0.000000
   25  O  2  Z   -0.023909
   26  O  2  X   -0.484763
   27  O  2  Y    0.000000
   28  O  2  Z    0.137313
   29  O  2 XX   -0.601492
   30  O  2 YY    0.364721
   31  O  2 ZZ    0.236771
   32  O  2 XY    0.000000
   33  O  2 XZ    0.408487
   34  O  2 YZ    0.000000
   35  O  3  S    0.012467
   36  O  3  S    0.463979
   37  O  3  S   -0.758760
   38  O  3  X   -0.080412
   39  O  3  Y    0.000000
   40  O  3  Z   -0.023909
   41  O  3  X    0.484763
   42  O  3  Y    0.000000
   43  O  3  Z    0.137313
   44  O  3 XX   -0.601492
   45  O  3 YY    0.364721
   46  O  3 ZZ    0.236771
   47  O  3 XY    0.000000
   48  O  3 XZ   -0.408487
   49  O  3 YZ    0.000000
 ...... END OF RHF CALCULATION ......
 STEP CPU TIME =     4.20 TOTAL CPU TIME =        4.4 (    0.1 MIN)
 TOTAL WALL CLOCK TIME=        4.4 SECONDS, CPU UTILIZATION IS  99.77%

     ---------------------------------------------------------------------
     PROPERTIES FOR THE PBE      DFT FUNCTIONAL (RHF  TYPE) DENSITY MATRIX
     ---------------------------------------------------------------------

          -----------------
          ENERGY COMPONENTS
          -----------------

         WAVEFUNCTION NORMALIZATION =       1.0000000000

                ONE ELECTRON ENERGY =    -924.5127800207
                TWO ELECTRON ENERGY =     291.3714241210
           NUCLEAR REPULSION ENERGY =      85.0002239160
                                      ------------------
                       TOTAL ENERGY =    -548.1411319837

 ELECTRON-ELECTRON POTENTIAL ENERGY =     291.3714241210
  NUCLEUS-ELECTRON POTENTIAL ENERGY =   -1471.2282975626
   NUCLEUS-NUCLEUS POTENTIAL ENERGY =      85.0002239160
                                      ------------------
             TOTAL POTENTIAL ENERGY =   -1094.8566495257
               TOTAL KINETIC ENERGY =     546.7155175420
                 VIRIAL RATIO (V/T) =       2.0026075983

          ---------------------------------------
          MULLIKEN AND LOWDIN POPULATION ANALYSES
          ---------------------------------------

     ATOMIC MULLIKEN POPULATION IN EACH MOLECULAR ORBITAL

                      1          2          3          4          5

                  2.000000   2.000000   2.000000   2.000000   2.000000

    1             2.000001   0.001071   0.000408   2.000169   1.999959
    2             0.000000   0.999464   0.999796  -0.000084   0.000020
    3             0.000000   0.999464   0.999796  -0.000084   0.000020

                      6          7          8          9         10

                  2.000000   2.000000   2.000000   2.000000   2.000000

    1             2.000002   1.999988   0.511345   0.159996   1.291340
    2            -0.000001   0.000006   0.744328   0.920002   0.354330
    3            -0.000001   0.000006   0.744328   0.920002   0.354330

                     11         12         13         14         15

                  2.000000   2.000000   2.000000   2.000000   2.000000

    1             0.575039   1.166095   1.168201   0.036364   0.055634
    2             0.712480   0.416953   0.415899   0.981818   0.972183
    3             0.712480   0.416953   0.415899   0.981818   0.972183

                     16

                  2.000000

    1             0.287655
    2             0.856172
    3             0.856172

               ----- POPULATIONS IN EACH AO -----
                             MULLIKEN      LOWDIN
              1  S  1  S      2.00021     1.99610
              2  S  1  S      2.01073     1.97567
              3  S  1  S      1.02730     0.66049
              4  S  1  S      0.91579     0.56887
              5  S  1  X      1.99621     1.95209
              6  S  1  Y      1.99628     1.95557
              7  S  1  Z      1.99653     1.95773
              8  S  1  X      0.62409     0.57229
              9  S  1  Y      0.66676     0.64852
             10  S  1  Z      0.72266     0.70258
             11  S  1  X      0.12804     0.30857
             12  S  1  Y      0.50120     0.54649
             13  S  1  Z      0.47664     0.53625
             14  S  1 XX      0.02927     0.26025
             15  S  1 YY      0.07998     0.28423
             16  S  1 ZZ      0.03636     0.27980
             17  S  1 XY      0.04336     0.04222
             18  S  1 XZ      0.00187     0.05324
             19  S  1 YZ      0.00000     0.00175
             20  O  2  S      1.99805     1.98131
             21  O  2  S      0.85854     0.67382
             22  O  2  S      1.11128     0.61019
             23  O  2  X      0.79391     0.75828
             24  O  2  Y      0.83477     0.80392
             25  O  2  Z      1.04538     1.01468
             26  O  2  X      0.49066     0.56383
             27  O  2  Y      0.56187     0.59622
             28  O  2  Z      0.66998     0.70517
             29  O  2 XX      0.00124     0.21397
             30  O  2 YY      0.00334     0.21326
             31  O  2 ZZ      0.00200     0.20845
             32  O  2 XY      0.00222     0.00242
             33  O  2 XZ      0.00014     0.00294
             34  O  2 YZ      0.00000     0.00017
             35  O  3  S      1.99805     1.98131
             36  O  3  S      0.85854     0.67382
             37  O  3  S      1.11128     0.61019
             38  O  3  X      0.79391     0.75828
             39  O  3  Y      0.83477     0.80392
             40  O  3  Z      1.04538     1.01468
             41  O  3  X      0.49066     0.56383
             42  O  3  Y      0.56187     0.59622
             43  O  3  Z      0.66998     0.70517
             44  O  3 XX      0.00124     0.21397
             45  O  3 YY      0.00334     0.21326
             46  O  3 ZZ      0.00200     0.20845
             47  O  3 XY      0.00222     0.00242
             48  O  3 XZ      0.00014     0.00294
             49  O  3 YZ      0.00000     0.00017

          ----- MULLIKEN ATOMIC OVERLAP POPULATIONS -----
          (OFF-DIAGONAL ELEMENTS NEED TO BE MULTIPLIED BY 2)

             1           2           3

    1   14.8878957
    2    0.1826853   8.1908928
    3    0.1826853  -0.0002112   8.1908928

          TOTAL MULLIKEN AND LOWDIN ATOMIC POPULATIONS
       ATOM         MULL.POP.    CHARGE          LOW.POP.     CHARGE
    1 S            15.253266    0.746734        15.302724    0.697276
    2 O             8.373367   -0.373367         8.348638   -0.348638
    3 O             8.373367   -0.373367         8.348638   -0.348638

          MULLIKEN SPHERICAL HARMONIC POPULATIONS
       ATOM           S       P       D      F      G      H      I    TOTAL
    1 S             5.95    9.11    0.19   0.00   0.00   0.00   0.00   15.25
    2 O             3.97    4.40    0.01   0.00   0.00   0.00   0.00    8.37
    3 O             3.97    4.40    0.01   0.00   0.00   0.00   0.00    8.37

          -------------------------------
          BOND ORDER AND VALENCE ANALYSIS     BOND ORDER THRESHOLD=0.050
          -------------------------------

                   BOND                       BOND                       BOND
  ATOM PAIR DIST  ORDER      ATOM PAIR DIST  ORDER      ATOM PAIR DIST  ORDER
    1   2  1.800  1.580        1   3  1.800  1.580        2   3  3.477  0.601

                       TOTAL       BONDED        FREE
      ATOM            VALENCE     VALENCE     VALENCE
    1 S                 3.160       3.160       0.000
    2 O                 2.181       2.181       0.000
    3 O                 2.181       2.181       0.000

          ---------------------
          ELECTROSTATIC MOMENTS
          ---------------------

 POINT   1           X           Y           Z (BOHR)    CHARGE
                 0.000000    0.000000    0.000000        0.00 (A.U.)
         DX          DY          DZ         /D/  (DEBYE)
     0.000000    0.000000   -0.964232    0.964232
 ...... END OF PROPERTY EVALUATION ......
 STEP CPU TIME =     0.01 TOTAL CPU TIME =        4.4 (    0.1 MIN)
 TOTAL WALL CLOCK TIME=        4.4 SECONDS, CPU UTILIZATION IS  99.77%
               580000  WORDS OF DYNAMIC MEMORY USED
 EXECUTION OF GAMESS TERMINATED NORMALLY Thu Feb 26 00:21:00 2015
 DDI: 263624 bytes (0.3 MB / 0 MWords) used by master data server.

 ----------------------------------------
 CPU timing information for all processes
 ========================================
 0: 4.364 + 0.35 = 4.400
 ----------------------------------------
 ddikick.x: exited gracefully.
----- accounting info -----
Files used on the master node dftfe.crc.nd.edu were:
-rw-r--r-- 1 pmehta1 campus   37475 Feb 26 00:21 /tmp/gamess.dat
-rw-r--r-- 1 pmehta1 campus     142 Feb 26 00:20 /tmp/gamess.F05
-rw-r--r-- 1 pmehta1 campus 1800240 Feb 26 00:20 /tmp/gamess.F08
-rw-r--r-- 1 pmehta1 campus 1220440 Feb 26 00:21 /tmp/gamess.F10
Thu Feb 26 00:21:03 EST 2015
0.238u 0.182s 0:07.83 5.2%	0+0k 0+104io 0pf+0w
