----- GAMESS execution script 'rungms' -----
This job is running on host dftfe.crc.nd.edu
under operating system Linux at Thu Feb 26 00:19:58 EST 2015
Available scratch disk space (Kbyte units) at beginning of the job is
Filesystem     1K-blocks     Used Available Use% Mounted on
/dev/sda2      147771864 22816124 117449308  17% /
GAMESS temporary binary files will be written to /tmp
GAMESS supplementary output files will be written to /tmp
Copying input file gamess.inp to your run's scratch directory...

 Distributed Data Interface kickoff program.
 Initiating 1 compute processes on 1 nodes to run the following command:
 /opt/crc/gamess/2012R1/gamess/gamess.00.x gamess 

          ******************************************************
          *         GAMESS VERSION =  1 MAY 2012 (R1)          *
          *             FROM IOWA STATE UNIVERSITY             *
          * M.W.SCHMIDT, K.K.BALDRIDGE, J.A.BOATZ, S.T.ELBERT, *
          *   M.S.GORDON, J.H.JENSEN, S.KOSEKI, N.MATSUNAGA,   *
          *          K.A.NGUYEN, S.J.SU, T.L.WINDUS,           *
          *       TOGETHER WITH M.DUPUIS, J.A.MONTGOMERY       *
          *         J.COMPUT.CHEM.  14, 1347-1363(1993)        *
          **************** 64 BIT LINUX VERSION ****************

  SINCE 1993, STUDENTS AND POSTDOCS WORKING AT IOWA STATE UNIVERSITY
  AND ALSO IN THEIR VARIOUS JOBS AFTER LEAVING ISU HAVE MADE IMPORTANT
  CONTRIBUTIONS TO THE CODE:
     IVANA ADAMOVIC, CHRISTINE AIKENS, YURI ALEXEEV, POOJA ARORA,
     ANDREY ASADCHEV, ROB BELL, PRADIPTA BANDYOPADHYAY, JONATHAN BENTZ,
     BRETT BODE, GALINA CHABAN, WEI CHEN, CHEOL HO CHOI, PAUL DAY,
     ALBERT DEFUSCO, TIM DUDLEY, DMITRI FEDOROV, GRAHAM FLETCHER,
     MARK FREITAG, KURT GLAESEMANN, DAN KEMP, GRANT MERRILL,
     NORIYUKI MINEZAWA, JONATHAN MULLIN, TAKESHI NAGATA,
     SEAN NEDD, HEATHER NETZLOFF, BOSILJKA NJEGIC, RYAN OLSON, MIKE PAK,
     JIM SHOEMAKER, LYUDMILA SLIPCHENKO, SAROM SOK, JIE SONG,
     TETSUYA TAKETSUGU, SIMON WEBB, SOOHAENG YOO, FEDERICO ZAHARIEV

  ADDITIONAL CODE HAS BEEN PROVIDED BY COLLABORATORS IN OTHER GROUPS:
     IOWA STATE UNIVERSITY:
          JOE IVANIC, LAIMUTIS BYTAUTAS, KLAUS RUEDENBERG
     UNIVERSITY OF TOKYO: KIMIHIKO HIRAO, TAKAHITO NAKAJIMA,
          TAKAO TSUNEDA, MUNEAKI KAMIYA, SUSUMU YANAGISAWA,
          KIYOSHI YAGI, MAHITO CHIBA, SEIKEN TOKURA, NAOAKI KAWAKAMI
     UNIVERSITY OF AARHUS: FRANK JENSEN
     UNIVERSITY OF IOWA: VISVALDAS KAIRYS, HUI LI
     NATIONAL INST. OF STANDARDS AND TECHNOLOGY: WALT STEVENS, DAVID GARMER
     UNIVERSITY OF PISA: BENEDETTA MENNUCCI, JACOPO TOMASI
     UNIVERSITY OF MEMPHIS: HENRY KURTZ, PRAKASHAN KORAMBATH
     UNIVERSITY OF ALBERTA: TOBY ZENG, MARIUSZ KLOBUKOWSKI
     UNIVERSITY OF NEW ENGLAND: MARK SPACKMAN
     MIE UNIVERSITY: HIROAKI UMEDA
     MICHIGAN STATE UNIVERSITY:
          KAROL KOWALSKI, MARTA WLOCH, JEFFREY GOUR, JESSE LUTZ, PIOTR PIECUCH
     UNIVERSITY OF SILESIA: MONIKA MUSIAL, STANISLAW KUCHARSKI
     FACULTES UNIVERSITAIRES NOTRE-DAME DE LA PAIX:
          OLIVIER QUINET, BENOIT CHAMPAGNE
     UNIVERSITY OF CALIFORNIA - SANTA BARBARA: BERNARD KIRTMAN
     INSTITUTE FOR MOLECULAR SCIENCE:
          KAZUYA ISHIMURA, MICHIO KATOUDA, AND SHIGERU NAGASE
     UNIVERSITY OF NOTRE DAME: DAN CHIPMAN
     KYUSHU UNIVERSITY:
          HARUYUKI NAKANO,
          FENG LONG GU, JACEK KORCHOWIEC, MARCIN MAKOWSKI, AND YURIKO AOKI,
          HIROTOSHI MORI AND EISAKU MIYOSHI
     PENNSYLVANIA STATE UNIVERSITY:
          TZVETELIN IORDANOV, CHET SWALINA, JONATHAN SKONE,
          SHARON HAMMES-SCHIFFER
     WASEDA UNIVERSITY:
          MASATO KOBAYASHI, TOMOKO AKAMA, TSUGUKI TOUMA,
          TAKESHI YOSHIKAWA, YASUHIRO IKABATA, HIROMI NAKAI
     UNIVERSITY OF NEBRASKA:
          PEIFENG SU, DEJUN SI, NANDUN THELLAMUREGE, YALI WANG, HUI LI
     UNIVERSITY OF ZURICH:
          ROBERTO PEVERATI, KIM BALDRIDGE
     N. COPERNICUS UNIVERSITY AND JACKSON STATE UNIVERSITY:
          MARIA BARYSZ

 EXECUTION OF GAMESS BEGUN Thu Feb 26 00:19:58 2015

            ECHO OF THE FIRST FEW INPUT CARDS -
 INPUT CARD> $BASIS GBASIS=PC1 $END                                                         
 INPUT CARD> $CONTRL COORD=ZMT ISPHER=1 RUNTYP=ENERGY DFTTYP=PBE $END                       
 INPUT CARD>                                                                                
 INPUT CARD> $DATA                                                                          
 INPUT CARD>Title                                                                           
 INPUT CARD>Cnv 2                                                                           
 INPUT CARD>                                                                                
 INPUT CARD>S                                                                               
 INPUT CARD>O 1 1.70                                                                        
 INPUT CARD>O 1 1.70 2 170.0                                                                
 INPUT CARD> $END                                                                           
    1000000 WORDS OF MEMORY AVAILABLE

     BASIS OPTIONS
     -------------
     GBASIS=PC1          IGAUSS=       0      POLAR=NONE    
     NDFUNC=       0     NFFUNC=       0     DIFFSP=       F
     NPFUNC=       0      DIFFS=       F     BASNAM=        


     RUN TITLE
     ---------
 Title                                                                           

 THE POINT GROUP OF THE MOLECULE IS CNV     
 THE ORDER OF THE PRINCIPAL AXIS IS     2

 YOUR FULLY SUBSTITUTED Z-MATRIX IS
 S   
 O      1   1.7000000
 O      1   1.7000000  2  170.0000

 THE MOMENTS OF INERTIA ARE (AMU-ANGSTROM**2)
 IXX=     0.351   IYY=    91.748   IZZ=    92.099

 ATOM      ATOMIC                      COORDINATES (BOHR)
           CHARGE         X                   Y                   Z
 S          16.0     0.0000000000        0.0000000000       -0.1400342512
 O           8.0    -3.2003095167        0.0000000000        0.1399565513
 O           8.0     3.2003095167        0.0000000000        0.1399565513

          INTERNUCLEAR DISTANCES (ANGS.)
          ------------------------------

                1 S          2 O          3 O     

   1 S       0.0000000    1.7000000 *  1.7000000 *
   2 O       1.7000000 *  0.0000000    3.3870620  
   3 O       1.7000000 *  3.3870620    0.0000000  

  * ... LESS THAN  3.000


     ATOMIC BASIS SET
     ----------------
 THE CONTRACTED PRIMITIVE FUNCTIONS HAVE BEEN UNNORMALIZED
 THE CONTRACTED BASIS FUNCTIONS ARE NOW NORMALIZED TO UNITY

  SHELL TYPE  PRIMITIVE        EXPONENT          CONTRACTION COEFFICIENT(S)

 S         

      1   S       1         55510.0000000    0.000587229760
      1   S       2          8326.7000000    0.004532413947
      1   S       3          1895.6000000    0.023265261648
      1   S       4           536.7700000    0.089696133027
      1   S       5           174.6700000    0.254098332277
      1   S       6            62.5780000    0.438665087637
      1   S       7            23.5730000    0.314547135094
      1   S       8             5.8908000    0.032727897102

      2   S       9          8326.7000000   -0.000019755715
      2   S      10          1895.6000000   -0.000043822381
      2   S      11           536.7700000   -0.001730264906
      2   S      12           174.6700000   -0.009381263460
      2   S      13            62.5780000   -0.064050766303
      2   S      14            23.5730000   -0.082478179196
      2   S      15             5.8908000    0.478342956889
      2   S      16             2.1852000    0.626896670208

      3   S      17          1895.6000000    0.000016227260
      3   S      18           536.7700000    0.000191135619
      3   S      19           174.6700000    0.001952069674
      3   S      20            62.5780000    0.010578701087
      3   S      21            23.5730000    0.022164934551
      3   S      22             5.8908000   -0.184968323118
      3   S      23             2.1852000   -0.480920750976
      3   S      24             0.4528200    1.243822243872

      4   S      25             0.1620200    1.000000000000

      5   P      26           395.4500000    0.004642761329
      5   P      27            92.8340000    0.036023396489
      5   P      28            29.2660000    0.149058869978
      5   P      29            10.5950000    0.360033266263
      5   P      30             4.0272000    0.455756476221
      5   P      31             1.5484000    0.206167664178

      6   P      32            92.8340000    0.000169901442
      6   P      33            29.2660000   -0.002541839934
      6   P      34            10.5950000   -0.007867614595
      6   P      35             4.0272000   -0.037231009184
      6   P      36             1.5484000    0.161417246830
      6   P      37             0.4613400    0.902230419976

      7   P      38             0.1313100    1.000000000000

      8   D      39             0.5500000    1.000000000000

 O         

     15   S      40          2306.7000000    0.005424388755
     15   S      41           347.1500000    0.040474749465
     15   S      42            78.8900000    0.180219634554
     15   S      43            21.8760000    0.462370311787
     15   S      44             6.6646000    0.454888396263

     16   S      45           347.1500000   -0.000655003786
     16   S      46            78.8900000   -0.005362052952
     16   S      47            21.8760000   -0.074902158894
     16   S      48             6.6646000   -0.181442579655
     16   S      49             1.0669000    1.102006874042

     17   S      50             0.3070000    1.000000000000

     18   P      51            17.0220000    0.068979967443
     18   P      52             3.6838000    0.351985516325
     18   P      53             0.9923400    0.724036547822

     19   P      54             0.2448700    1.000000000000

     20   D      55             1.0000000    1.000000000000

 TOTAL NUMBER OF BASIS SET SHELLS             =   20
 NUMBER OF CARTESIAN GAUSSIAN BASIS FUNCTIONS =   49
 NOTE: THIS RUN WILL RESTRICT THE MO VARIATION SPACE TO SPHERICAL HARMONICS.
 THE NUMBER OF ORBITALS KEPT IN THE VARIATIONAL SPACE WILL BE PRINTED LATER.
 NUMBER OF ELECTRONS                          =   32
 CHARGE OF MOLECULE                           =    0
 SPIN MULTIPLICITY                            =    1
 NUMBER OF OCCUPIED ORBITALS (ALPHA)          =   16
 NUMBER OF OCCUPIED ORBITALS (BETA )          =   16
 TOTAL NUMBER OF ATOMS                        =    3
 THE NUCLEAR REPULSION ENERGY IS       89.6869009748

     LEBEDEV GRID-BASED DFT OPTIONS
     ------------------------------
     DFTTYP=PBE     
     NRAD  =      96     NLEB  =     302
     NRAD0 =      24     NLEB0 =     110
     SWOFF =    5.00E-03 (PURE SCF -> DFT)
     SWITCH=    3.00E-04 (COARSE -> TIGHT GRID)
     THRESH=    0.00E+00 GTHRE=    1.00E+00

 GRIMME'S EMPIRICAL DISPERSION CORRECTION= F

     $CONTRL OPTIONS
     ---------------
 SCFTYP=RHF          RUNTYP=ENERGY       EXETYP=RUN     
 MPLEVL=       0     CITYP =NONE         CCTYP =NONE         VBTYP =NONE    
 DFTTYP=PBE          TDDFT =NONE    
 MULT  =       1     ICHARG=       0     NZVAR =       0     COORD =ZMT     
 PP    =NONE         RELWFN=NONE         LOCAL =NONE         NUMGRD=       F
 ISPHER=       1     NOSYM =       0     MAXIT =      30     UNITS =ANGS    
 PLTORB=       F     MOLPLT=       F     AIMPAC=       F     FRIEND=        
 NPRINT=       7     IREST =       0     GEOM  =INPUT   
 NORMF =       0     NORMP =       0     ITOL  =      20     ICUT  =       9
 INTTYP=BEST         GRDTYP=BEST         QMTTOL= 1.0E-06

     $SYSTEM OPTIONS
     ---------------
  REPLICATED MEMORY=     1000000 WORDS (ON EVERY NODE).
 DISTRIBUTED MEMDDI=           0 MILLION WORDS IN AGGREGATE,
 MEMDDI DISTRIBUTED OVER   1 PROCESSORS IS           0 WORDS/PROCESSOR.
 TOTAL MEMORY REQUESTED ON EACH PROCESSOR=     1000000 WORDS.
 TIMLIM=      525600.00 MINUTES, OR     365.0 DAYS.
 PARALL= F  BALTYP=  DLB     KDIAG=    0  COREFL= F
 MXSEQ2=     300 MXSEQ3=     150

          ----------------
          PROPERTIES INPUT
          ----------------

     MOMENTS            FIELD           POTENTIAL          DENSITY
 IEMOM =       1   IEFLD =       0   IEPOT =       0   IEDEN =       0
 WHERE =COMASS     WHERE =NUCLEI     WHERE =NUCLEI     WHERE =NUCLEI  
 OUTPUT=BOTH       OUTPUT=BOTH       OUTPUT=BOTH       OUTPUT=BOTH    
 IEMINT=       0   IEFINT=       0                     IEDINT=       0
                                                       MORB  =       0
          EXTRAPOLATION IN EFFECT
          DIIS IN EFFECT
 ORBITAL PRINTING OPTION: NPREO=     1    49     2     1

     -------------------------------
     INTEGRAL TRANSFORMATION OPTIONS
     -------------------------------
     NWORD  =            0
     CUTOFF = 1.0E-09     MPTRAN =       0
     DIRTRF =       F     AOINTS =DUP     

          ----------------------
          INTEGRAL INPUT OPTIONS
          ----------------------
 NOPK  =       1 NORDER=       0 SCHWRZ=       F

   --- ENCODED Z MATRIX ---
 COORD  TYPE   I   J   K   L   M   N
    1      1    3   1
    2      1    2   1
    3      2    2   1   3

 THE DETERMINANT OF THE G MATRIX IS 10**(    -4)

 THE DETERMINANT OF THE G MATRIX IS 10**(    -4)
 * * * WARNING * * *
 YOUR B MATRIX HAS A SMALL DETERMINANT.
 THIS SUGGESTS YOU MAY HAVE BADLY CHOSEN COORDINATES.

     ------------------------------------------
     THE POINT GROUP IS CNV, NAXIS= 2, ORDER= 4
     ------------------------------------------

 -- VARIATIONAL SPACE WILL BE RESTRICTED TO PURE SPHERICAL HARMONICS ONLY --
 AFTER EXCLUDING CONTAMINANT COMBINATIONS FROM THE CARTESIAN GAUSSIAN BASIS
 SET, THE NUMBER OF SPHERICAL HARMONICS KEPT IN THE VARIATION SPACE IS   46

     DIMENSIONS OF THE SYMMETRY SUBSPACES ARE
 A1  =   19     A2  =    5     B1  =   14     B2  =    8

 ..... DONE SETTING UP THE RUN .....
 STEP CPU TIME =     0.01 TOTAL CPU TIME =        0.0 (    0.0 MIN)
 TOTAL WALL CLOCK TIME=        0.0 SECONDS, CPU UTILIZATION IS  50.00%

          ********************
          1 ELECTRON INTEGRALS
          ********************
 ...... END OF ONE-ELECTRON INTEGRALS ......
 STEP CPU TIME =     0.01 TOTAL CPU TIME =        0.0 (    0.0 MIN)
 TOTAL WALL CLOCK TIME=        0.0 SECONDS, CPU UTILIZATION IS 100.00%

          -------------
          GUESS OPTIONS
          -------------
          GUESS =HUCKEL            NORB  =       0          NORDER=       0
          MIX   =       F          PRTMO =       F          PUNMO =       F
          TOLZ  = 1.0E-08          TOLE  = 1.0E-05
          SYMDEN=       F          PURIFY=       F

 INITIAL GUESS ORBITALS GENERATED BY HUCKEL   ROUTINE.
 HUCKEL GUESS REQUIRES     21583 WORDS.

 STATISTICS FOR GENERATION OF SYMMETRY ORBITAL -Q- MATRIX
 NUMBER OF CARTESIAN ATOMIC ORBITALS=         49
 NUMBER OF SPHERICAL CONTAMINANTS DROPPED=     3
 NUMBER OF LINEARLY DEPENDENT MOS DROPPED=     0
 TOTAL NUMBER OF MOS IN VARIATION SPACE=      46

 SYMMETRIES FOR INITIAL GUESS ORBITALS FOLLOW.   BOTH SET(S).
    16 ORBITALS ARE OCCUPIED (    7 CORE ORBITALS).
     8=?B1      9=?A1     10=A1      11=B2      12=A1      13=B1      14=A2  
    15=B1      16=?A1     17=B2      18=A1      19=B1      20=A1      21=A1  
    22=A1      23=A1      24=A1      25=A1      26=A1  
 ...... END OF INITIAL ORBITAL SELECTION ......
 STEP CPU TIME =     0.00 TOTAL CPU TIME =        0.0 (    0.0 MIN)
 TOTAL WALL CLOCK TIME=        0.0 SECONDS, CPU UTILIZATION IS  66.67%

                    ----------------------
                    AO INTEGRAL TECHNOLOGY
                    ----------------------
     S,P,L SHELL ROTATED AXIS INTEGRALS, REPROGRAMMED BY
        KAZUYA ISHIMURA (IMS) AND JOSE SIERRA (SYNSTAR).
     S,P,D,L SHELL ROTATED AXIS INTEGRALS PROGRAMMED BY
        KAZUYA ISHIMURA (INSTITUTE FOR MOLECULAR SCIENCE).
     S,P,D,F,G SHELL TO TOTAL QUARTET ANGULAR MOMENTUM SUM 5,
        ERIC PROGRAM BY GRAHAM FLETCHER (ELORET AND NASA ADVANCED
        SUPERCOMPUTING DIVISION, AMES RESEARCH CENTER).
     S,P,D,F,G,L SHELL GENERAL RYS QUADRATURE PROGRAMMED BY
        MICHEL DUPUIS (PACIFIC NORTHWEST NATIONAL LABORATORY).

          --------------------
          2 ELECTRON INTEGRALS
          --------------------

 THE -PK- OPTION IS OFF, THE INTEGRALS ARE NOT IN SUPERMATRIX FORM.
 STORING   15000 INTEGRALS/RECORD ON DISK, USING 12 BYTES/INTEGRAL.
 TWO ELECTRON INTEGRAL EVALUATION REQUIRES   90606 WORDS OF MEMORY.
 II,JST,KST,LST =  1  1  1  1 NREC =         1 INTLOC =    1
 II,JST,KST,LST =  2  1  1  1 NREC =         1 INTLOC =    2
 II,JST,KST,LST =  3  1  1  1 NREC =         1 INTLOC =    7
 II,JST,KST,LST =  4  1  1  1 NREC =         1 INTLOC =   22
 II,JST,KST,LST =  5  1  1  1 NREC =         1 INTLOC =   56
 II,JST,KST,LST =  6  1  1  1 NREC =         1 INTLOC =  125
 II,JST,KST,LST =  7  1  1  1 NREC =         1 INTLOC =  329
 II,JST,KST,LST =  8  1  1  1 NREC =         1 INTLOC =  776
 II,JST,KST,LST =  9  1  1  1 NREC =         1 INTLOC = 2864
 II,JST,KST,LST = 10  1  1  1 NREC =         1 INTLOC = 2864
 II,JST,KST,LST = 11  1  1  1 NREC =         1 INTLOC = 2864
 II,JST,KST,LST = 12  1  1  1 NREC =         1 INTLOC = 2864
 II,JST,KST,LST = 13  1  1  1 NREC =         1 INTLOC = 2864
 II,JST,KST,LST = 14  1  1  1 NREC =         1 INTLOC = 2864
 II,JST,KST,LST = 15  1  1  1 NREC =         1 INTLOC = 2864
 II,JST,KST,LST = 16  1  1  1 NREC =         1 INTLOC = 4917
 II,JST,KST,LST = 17  1  1  1 NREC =         1 INTLOC = 7936
 II,JST,KST,LST = 18  1  1  1 NREC =         1 INTLOC =12276
 II,JST,KST,LST = 19  1  1  1 NREC =         2 INTLOC =12877
 II,JST,KST,LST = 20  1  1  1 NREC =         4 INTLOC =12760
 TOTAL NUMBER OF NONZERO TWO-ELECTRON INTEGRALS =              152176
         11 INTEGRAL RECORDS WERE STORED ON DISK FILE  8.
  ...... END OF TWO-ELECTRON INTEGRALS .....
 STEP CPU TIME =     0.15 TOTAL CPU TIME =        0.2 (    0.0 MIN)
 TOTAL WALL CLOCK TIME=        0.2 SECONDS, CPU UTILIZATION IS  94.44%

          --------------------------
               R-PBE SCF CALCULATION
          --------------------------

     NUCLEAR ENERGY =        89.6869009748
     MAXIT =   30     NPUNCH=    2
     EXTRAP=T  DAMP=F  SHIFT=F  RSTRCT=F  DIIS=T  DEM=F  SOSCF=F
         DENSITY MATRIX CONVERGENCE THRESHOLD=  1.00E-05
     COARSE -> FINE DFT GRID SWITCH THRESHOLD=  3.00E-04 (SWITCH IN $DFT)
                   HF -> DFT SWITCH THRESHOLD=  5.00E-03 (SWOFF IN $DFT)
     MEMORY REQUIRED FOR RHF ITERS=    183108 WORDS.

 DFT CODE IS SWITCHING FROM THE FINE GRID NRAD= 96,  NLEB=  302
                      TO THE COARSE GRID NRAD0= 24, NLEB0=  110

     EXCHANGE FUNCTIONAL   =PBE       
     CORRELATION FUNCTIONAL=PBE       
     DFT THRESHOLD         =.460E-07
     GRID CHANGE THRESHOLD =.300E-03
 FOR AN EULER-MACLAURIN QUADRATURE USING  96 RADIAL POINTS:
 SMALLEST GAUSSIAN PRIMITIVE EXPONENT=        0.1313100000 OF TYPE -P-
 ON ATOM NUMBER   1 HAS RADIAL NORMALIZATION=  1.000000
  LARGEST GAUSSIAN PRIMITIVE EXPONENT=    55510.0000000000 OF TYPE -S-
 ON ATOM NUMBER   1 HAS RADIAL NORMALIZATION=  0.999999
 DFT IS SWITCHED OFF, PERFORMING PURE SCF UNTIL SWOFF THRESHOLD IS REACHED.

 ITER EX DEM     TOTAL ENERGY        E CHANGE  DENSITY CHANGE    DIIS ERROR
   1  0  0     -545.8232231842  -545.8232231842   0.473972119   1.287943940
          * * *   INITIATING DIIS PROCEDURE   * * *
   2  1  0     -546.2939640010    -0.4707408168   0.715601370   0.486944908
   3  2  0     -546.2232409757     0.0707230252   0.300238746   0.489393307
   4  3  0     -546.8591030587    -0.6358620830   0.032547522   0.022349185
   5  4  0     -546.8661316671    -0.0070286085   0.031008878   0.013610055
   6  5  0     -546.8694968134    -0.0033651462   0.033085643   0.011178076
   7  6  0     -546.8725130239    -0.0030162105   0.036436880   0.008797994
   8  7  0     -546.8748111132    -0.0022980893   0.039381937   0.005954410
   9  8  0     -546.8765745885    -0.0017634753   0.037933052   0.004170541
  10  9  0     -546.8775173459    -0.0009427574   0.028735803   0.002256805
  11 10  0     -546.8777916382    -0.0002742923   0.011154704   0.000794841
  12 11  0     -546.8778187223    -0.0000270841   0.000658956   0.000626685
 CONVERGED TO SWOFF, SO DFT CALCULATION IS NOW SWITCHED ON.
          * * *   INITIATING DIIS PROCEDURE   * * *
  13 12  0     -548.0657485467    -1.1879298245   0.376535249   0.109475269
  14 13  0     -548.0307070612     0.0350414855   0.303818778   0.160202129
  15 14  0     -548.0513485171    -0.0206414559   0.173622318   0.199850938
  16 15  0     -548.1269661633    -0.0756176462   0.110809496   0.046995229
  17 16  0     -548.1360739376    -0.0091077743   0.027988303   0.015244139
  18 17  0     -548.1370463325    -0.0009723949   0.006415171   0.001986049
  19 18  0     -548.1370696323    -0.0000232998   0.000532989   0.000335847
  20 19  0     -548.1370699600    -0.0000003277   0.000179030   0.000065211
 DFT CODE IS SWITCHING BACK TO THE FINE GRID
          * * *   INITIATING DIIS PROCEDURE   * * *
  21 20  0     -548.1511315423    -0.0140615823   0.021387615   0.013009447
  22 21  0     -548.1511469354    -0.0000153930   0.024645583   0.011027465
  23 22  0     -548.1505340521     0.0006128832   0.015789339   0.020495473
  24 23  0     -548.1514482307    -0.0009141786   0.007156398   0.002944774
  25 24  0     -548.1514907408    -0.0000425101   0.000601607   0.000291328
  26 25  0     -548.1514911315    -0.0000003907   0.000142105   0.000041410
  27 26  0     -548.1514911375    -0.0000000060   0.000025520   0.000019727
  28 27  0     -548.1514911386    -0.0000000011   0.000002489   0.000002728
  29 28  0     -548.1514911386     0.0000000000   0.000000380   0.000000350

          -----------------
          DENSITY CONVERGED
          -----------------
     TIME TO FORM FOCK OPERATORS=       4.7 SECONDS (       0.2 SEC/ITER)
     TIME TO SOLVE SCF EQUATIONS=       0.0 SECONDS (       0.0 SEC/ITER)

 FINAL R-PBE ENERGY IS     -548.1514911386 AFTER  29 ITERATIONS
 DFT EXCHANGE + CORRELATION ENERGY =       -42.2488363307
 TOTAL ELECTRON NUMBER             =        31.9999988390

          ------------
          EIGENVECTORS
          ------------

                      1          2          3          4          5
                  -88.2251   -18.8261   -18.8260    -7.8394    -5.8612
                     A1         B1         A1         A1         B1  
    1  S  1  S    1.002980   0.000000  -0.000032  -0.274148   0.000000
    2  S  1  S   -0.010301   0.000000  -0.000647   1.039382   0.000000
    3  S  1  S    0.001756   0.000000  -0.001037   0.039950   0.000000
    4  S  1  S   -0.000819   0.000000   0.005943  -0.011068   0.000000
    5  S  1  X    0.000000   0.000172   0.000000   0.000000   0.996977
    6  S  1  Y    0.000000   0.000000   0.000000   0.000000   0.000000
    7  S  1  Z    0.000032   0.000000  -0.000012   0.005442   0.000000
    8  S  1  X    0.000000  -0.001301   0.000000   0.000000   0.008526
    9  S  1  Y    0.000000   0.000000   0.000000   0.000000   0.000000
   10  S  1  Z   -0.000002   0.000000   0.000111   0.000397   0.000000
   11  S  1  X    0.000000  -0.008216   0.000000   0.000000  -0.000521
   12  S  1  Y    0.000000   0.000000   0.000000   0.000000   0.000000
   13  S  1  Z    0.000000   0.000000   0.000451  -0.000141   0.000000
   14  S  1 XX    0.000064   0.000000   0.001396   0.000973   0.000000
   15  S  1 YY   -0.000032   0.000000  -0.000710  -0.000480   0.000000
   16  S  1 ZZ   -0.000032   0.000000  -0.000686  -0.000493   0.000000
   17  S  1 XY    0.000000   0.000000   0.000000   0.000000   0.000000
   18  S  1 XZ    0.000000  -0.000368   0.000000   0.000000   0.000339
   19  S  1 YZ    0.000000   0.000000   0.000000   0.000000   0.000000
   20  O  2  S    0.000005   0.703315   0.703218   0.000056   0.000126
   21  O  2  S    0.000034   0.026206   0.024860   0.000225   0.000217
   22  O  2  S   -0.000006  -0.013845  -0.009790  -0.000070  -0.000569
   23  O  2  X    0.000002   0.000819   0.000713  -0.000186  -0.000120
   24  O  2  Y    0.000000   0.000000   0.000000   0.000000   0.000000
   25  O  2  Z   -0.000001  -0.000097  -0.000001   0.000009   0.000000
   26  O  2  X   -0.000087  -0.003447  -0.002473  -0.000960  -0.000372
   27  O  2  Y    0.000000   0.000000   0.000000   0.000000   0.000000
   28  O  2  Z    0.000010   0.000491   0.000075   0.000126   0.000092
   29  O  2 XX   -0.000097  -0.000326  -0.000481  -0.000914  -0.000417
   30  O  2 YY    0.000049   0.000168   0.000246   0.000463   0.000213
   31  O  2 ZZ    0.000048   0.000158   0.000235   0.000451   0.000203
   32  O  2 XY    0.000000   0.000000   0.000000   0.000000   0.000000
   33  O  2 XZ    0.000016   0.000069   0.000078   0.000149   0.000094
   34  O  2 YZ    0.000000   0.000000   0.000000   0.000000   0.000000
   35  O  3  S    0.000005  -0.703315   0.703218   0.000056  -0.000126
   36  O  3  S    0.000034  -0.026206   0.024860   0.000225  -0.000217
   37  O  3  S   -0.000006   0.013845  -0.009790  -0.000070   0.000569
   38  O  3  X   -0.000002   0.000819  -0.000713   0.000186  -0.000120
   39  O  3  Y    0.000000   0.000000   0.000000   0.000000   0.000000
   40  O  3  Z   -0.000001   0.000097  -0.000001   0.000009   0.000000
   41  O  3  X    0.000087  -0.003447   0.002473   0.000960  -0.000372
   42  O  3  Y    0.000000   0.000000   0.000000   0.000000   0.000000
   43  O  3  Z    0.000010  -0.000491   0.000075   0.000126  -0.000092
   44  O  3 XX   -0.000097   0.000326  -0.000481  -0.000914   0.000417
   45  O  3 YY    0.000049  -0.000168   0.000246   0.000463  -0.000213
   46  O  3 ZZ    0.000048  -0.000158   0.000235   0.000451  -0.000203
   47  O  3 XY    0.000000   0.000000   0.000000   0.000000   0.000000
   48  O  3 XZ   -0.000016   0.000069  -0.000078  -0.000149   0.000094
   49  O  3 YZ    0.000000   0.000000   0.000000   0.000000   0.000000

                      6          7          8          9         10
                   -5.8584    -5.8578    -0.9477    -0.9096    -0.6362
                     B2         A1         A1         B1         A1  
    1  S  1  S    0.000000   0.001523   0.043891   0.000000   0.072208
    2  S  1  S    0.000000  -0.005737  -0.130505   0.000000  -0.206704
    3  S  1  S    0.000000   0.000126   0.255067   0.000000   0.450906
    4  S  1  S    0.000000  -0.000342   0.186748   0.000000   0.433804
    5  S  1  X    0.000000   0.000000   0.000000   0.093786   0.000000
    6  S  1  Y    0.997039   0.000000   0.000000   0.000000   0.000000
    7  S  1  Z    0.000000   0.997035  -0.010360   0.000000  -0.004581
    8  S  1  X    0.000000   0.000000   0.000000  -0.184193   0.000000
    9  S  1  Y    0.008482   0.000000   0.000000   0.000000   0.000000
   10  S  1  Z    0.000000   0.008446   0.022340   0.000000   0.013886
   11  S  1  X    0.000000   0.000000   0.000000  -0.018278   0.000000
   12  S  1  Y   -0.000060   0.000000   0.000000   0.000000   0.000000
   13  S  1  Z    0.000000  -0.000064   0.004439   0.000000   0.001221
   14  S  1 XX    0.000000  -0.000318   0.053215   0.000000  -0.017254
   15  S  1 YY    0.000000  -0.000133  -0.026956   0.000000   0.009015
   16  S  1 ZZ    0.000000   0.000451  -0.026258   0.000000   0.008239
   17  S  1 XY    0.000000   0.000000   0.000000   0.000000   0.000000
   18  S  1 XZ    0.000000   0.000000   0.000000  -0.010810   0.000000
   19  S  1 YZ    0.000338   0.000000   0.000000   0.000000   0.000000
   20  O  2  S    0.000000  -0.000018  -0.131415  -0.150914   0.098329
   21  O  2  S    0.000000  -0.000066   0.265675   0.300901  -0.203621
   22  O  2  S    0.000000   0.000196   0.316969   0.390948  -0.318972
   23  O  2  X    0.000000   0.000027   0.080539   0.072629   0.124400
   24  O  2  Y    0.000002   0.000000   0.000000   0.000000   0.000000
   25  O  2  Z    0.000000   0.000000  -0.005114  -0.004778  -0.007723
   26  O  2  X    0.000000   0.000135   0.034862   0.043441   0.055042
   27  O  2  Y   -0.000023   0.000000   0.000000   0.000000   0.000000
   28  O  2  Z    0.000000  -0.000038  -0.001715  -0.003438  -0.002025
   29  O  2 XX    0.000000   0.000086   0.007506   0.008055   0.009766
   30  O  2 YY    0.000000  -0.000038  -0.003488  -0.003760  -0.005125
   31  O  2 ZZ    0.000000  -0.000047  -0.004018  -0.004295  -0.004641
   32  O  2 XY    0.000023   0.000000   0.000000   0.000000   0.000000
   33  O  2 XZ    0.000000   0.000007   0.000523   0.000111  -0.002038
   34  O  2 YZ   -0.000006   0.000000   0.000000   0.000000   0.000000
   35  O  3  S    0.000000  -0.000018  -0.131415   0.150914   0.098329
   36  O  3  S    0.000000  -0.000066   0.265675  -0.300901  -0.203621
   37  O  3  S    0.000000   0.000196   0.316969  -0.390948  -0.318972
   38  O  3  X    0.000000  -0.000027  -0.080539   0.072629  -0.124400
   39  O  3  Y    0.000002   0.000000   0.000000   0.000000   0.000000
   40  O  3  Z    0.000000   0.000000  -0.005114   0.004778  -0.007723
   41  O  3  X    0.000000  -0.000135  -0.034862   0.043441  -0.055042
   42  O  3  Y   -0.000023   0.000000   0.000000   0.000000   0.000000
   43  O  3  Z    0.000000  -0.000038  -0.001715   0.003438  -0.002025
   44  O  3 XX    0.000000   0.000086   0.007506  -0.008055   0.009766
   45  O  3 YY    0.000000  -0.000038  -0.003488   0.003760  -0.005125
   46  O  3 ZZ    0.000000  -0.000047  -0.004018   0.004295  -0.004641
   47  O  3 XY   -0.000023   0.000000   0.000000   0.000000   0.000000
   48  O  3 XZ    0.000000  -0.000007  -0.000523   0.000111   0.002038
   49  O  3 YZ   -0.000006   0.000000   0.000000   0.000000   0.000000

                     11         12         13         14         15
                   -0.4366    -0.3932    -0.3922    -0.3201    -0.3186
                     B1         B2         A1         A2         B1  
    1  S  1  S    0.000000   0.000000  -0.004219   0.000000   0.000000
    2  S  1  S    0.000000   0.000000   0.013458   0.000000   0.000000
    3  S  1  S    0.000000   0.000000  -0.024829   0.000000   0.000000
    4  S  1  S    0.000000   0.000000  -0.043070   0.000000   0.000000
    5  S  1  X   -0.177940   0.000000   0.000000   0.000000  -0.010266
    6  S  1  Y    0.000000  -0.203848   0.000000   0.000000   0.000000
    7  S  1  Z    0.000000   0.000000  -0.203533   0.000000   0.000000
    8  S  1  X    0.419094   0.000000   0.000000   0.000000   0.023882
    9  S  1  Y    0.000000   0.478003   0.000000   0.000000   0.000000
   10  S  1  Z    0.000000   0.000000   0.477018   0.000000   0.000000
   11  S  1  X    0.054793   0.000000   0.000000   0.000000   0.024878
   12  S  1  Y    0.000000   0.306754   0.000000   0.000000   0.000000
   13  S  1  Z    0.000000   0.000000   0.305695   0.000000   0.000000
   14  S  1 XX    0.000000   0.000000  -0.005664   0.000000   0.000000
   15  S  1 YY    0.000000   0.000000  -0.007615   0.000000   0.000000
   16  S  1 ZZ    0.000000   0.000000   0.013279   0.000000   0.000000
   17  S  1 XY    0.000000   0.000000   0.000000  -0.095096   0.000000
   18  S  1 XZ    0.013586   0.000000   0.000000   0.000000  -0.094221
   19  S  1 YZ    0.000000   0.012024   0.000000   0.000000   0.000000
   20  O  2  S   -0.056697   0.000000   0.002490   0.000000  -0.001585
   21  O  2  S    0.126958   0.000000  -0.004601   0.000000   0.002272
   22  O  2  S    0.179147   0.000000  -0.012139   0.000000   0.013620
   23  O  2  X   -0.363383   0.000000   0.056538   0.000000   0.046066
   24  O  2  Y    0.000000   0.299732   0.000000   0.467464   0.000000
   25  O  2  Z    0.024516   0.000000   0.294224   0.000000   0.464716
   26  O  2  X   -0.232806   0.000000   0.036157   0.000000   0.035268
   27  O  2  Y    0.000000   0.185874   0.000000   0.334695   0.000000
   28  O  2  Z    0.017075   0.000000   0.182695   0.000000   0.332588
   29  O  2 XX   -0.016037   0.000000   0.003590   0.000000   0.001433
   30  O  2 YY    0.008240   0.000000  -0.000855   0.000000   0.000269
   31  O  2 ZZ    0.007797   0.000000  -0.002735   0.000000  -0.001703
   32  O  2 XY    0.000000   0.015884   0.000000   0.014692   0.000000
   33  O  2 XZ    0.003050   0.000000   0.015433   0.000000   0.014654
   34  O  2 YZ    0.000000  -0.001111   0.000000  -0.001135   0.000000
   35  O  3  S    0.056697   0.000000   0.002490   0.000000   0.001585
   36  O  3  S   -0.126958   0.000000  -0.004601   0.000000  -0.002272
   37  O  3  S   -0.179147   0.000000  -0.012139   0.000000  -0.013620
   38  O  3  X   -0.363383   0.000000  -0.056538   0.000000   0.046066
   39  O  3  Y    0.000000   0.299732   0.000000  -0.467464   0.000000
   40  O  3  Z   -0.024516   0.000000   0.294224   0.000000  -0.464716
   41  O  3  X   -0.232806   0.000000  -0.036157   0.000000   0.035268
   42  O  3  Y    0.000000   0.185874   0.000000  -0.334695   0.000000
   43  O  3  Z   -0.017075   0.000000   0.182695   0.000000  -0.332588
   44  O  3 XX    0.016037   0.000000   0.003590   0.000000  -0.001433
   45  O  3 YY   -0.008240   0.000000  -0.000855   0.000000  -0.000269
   46  O  3 ZZ   -0.007797   0.000000  -0.002735   0.000000   0.001703
   47  O  3 XY    0.000000  -0.015884   0.000000   0.014692   0.000000
   48  O  3 XZ    0.003050   0.000000  -0.015433   0.000000   0.014654
   49  O  3 YZ    0.000000  -0.001111   0.000000   0.001135   0.000000

                     16         17         18         19         20
                   -0.2550    -0.2141    -0.2096     0.0725     0.3463
                     A1         B2         A1         B1         B1  
    1  S  1  S    0.029429   0.000000   0.007589   0.000000   0.000000
    2  S  1  S   -0.116150   0.000000  -0.027445   0.000000   0.000000
    3  S  1  S    0.150420   0.000000   0.043050   0.000000   0.000000
    4  S  1  S    0.550422   0.000000   0.143160   0.000000   0.000000
    5  S  1  X    0.000000   0.000000   0.000000  -0.236078   0.262091
    6  S  1  Y    0.000000  -0.206326   0.000000   0.000000   0.000000
    7  S  1  Z    0.036852   0.000000  -0.203056   0.000000   0.000000
    8  S  1  X    0.000000   0.000000   0.000000   0.631654  -1.013687
    9  S  1  Y    0.000000   0.515420   0.000000   0.000000   0.000000
   10  S  1  Z   -0.089773   0.000000   0.508135   0.000000   0.000000
   11  S  1  X    0.000000   0.000000   0.000000   1.121792   1.813952
   12  S  1  Y    0.000000   0.392640   0.000000   0.000000   0.000000
   13  S  1  Z   -0.043679   0.000000   0.394435   0.000000   0.000000
   14  S  1 XX   -0.166507   0.000000  -0.043922   0.000000   0.000000
   15  S  1 YY    0.083783   0.000000   0.022469   0.000000   0.000000
   16  S  1 ZZ    0.082725   0.000000   0.021452   0.000000   0.000000
   17  S  1 XY    0.000000   0.000000   0.000000   0.000000   0.000000
   18  S  1 XZ    0.000000   0.000000   0.000000  -0.048917  -0.059283
   19  S  1 YZ    0.000000  -0.000335   0.000000   0.000000   0.000000
   20  O  2  S    0.007114   0.000000   0.006316  -0.070217  -0.030049
   21  O  2  S   -0.019344   0.000000  -0.013829   0.134748   0.008814
   22  O  2  S   -0.067652   0.000000  -0.044102   0.601600   0.685972
   23  O  2  X   -0.439127   0.000000  -0.151897   0.330059  -0.246938
   24  O  2  Y    0.000000  -0.395852   0.000000   0.000000   0.000000
   25  O  2  Z    0.150734   0.000000  -0.368765  -0.071442  -0.020932
   26  O  2  X   -0.319473   0.000000  -0.116860   0.433716   0.278331
   27  O  2  Y    0.000000  -0.301053   0.000000   0.000000   0.000000
   28  O  2  Z    0.110047   0.000000  -0.281134  -0.064883  -0.027811
   29  O  2 XX   -0.005780   0.000000  -0.000777  -0.000719   0.052231
   30  O  2 YY    0.003021   0.000000   0.000502   0.000783  -0.026068
   31  O  2 ZZ    0.002759   0.000000   0.000275  -0.000064  -0.026163
   32  O  2 XY    0.000000   0.000301   0.000000   0.000000   0.000000
   33  O  2 XZ    0.002464   0.000000   0.000798   0.004042  -0.003758
   34  O  2 YZ    0.000000  -0.000102   0.000000   0.000000   0.000000
   35  O  3  S    0.007114   0.000000   0.006316   0.070217   0.030049
   36  O  3  S   -0.019344   0.000000  -0.013829  -0.134748  -0.008814
   37  O  3  S   -0.067652   0.000000  -0.044102  -0.601600  -0.685972
   38  O  3  X    0.439127   0.000000   0.151897   0.330059  -0.246938
   39  O  3  Y    0.000000  -0.395852   0.000000   0.000000   0.000000
   40  O  3  Z    0.150734   0.000000  -0.368765   0.071442   0.020932
   41  O  3  X    0.319473   0.000000   0.116860   0.433716   0.278331
   42  O  3  Y    0.000000  -0.301053   0.000000   0.000000   0.000000
   43  O  3  Z    0.110047   0.000000  -0.281134   0.064883   0.027811
   44  O  3 XX   -0.005780   0.000000  -0.000777   0.000719  -0.052231
   45  O  3 YY    0.003021   0.000000   0.000502  -0.000783   0.026068
   46  O  3 ZZ    0.002759   0.000000   0.000275   0.000064   0.026163
   47  O  3 XY    0.000000  -0.000301   0.000000   0.000000   0.000000
   48  O  3 XZ   -0.002464   0.000000  -0.000798   0.004042  -0.003758
   49  O  3 YZ    0.000000  -0.000102   0.000000   0.000000   0.000000

                     21         22         23         24         25
                    0.3707     0.3726     0.3872     0.4837     0.4946
                     A1         B2         A1         A2         B1  
    1  S  1  S   -0.043534   0.000000  -0.105887   0.000000   0.000000
    2  S  1  S   -0.162696   0.000000  -0.366105   0.000000   0.000000
    3  S  1  S   -0.678547   0.000000  -1.613399   0.000000   0.000000
    4  S  1  S    0.863140   0.000000   1.911422   0.000000   0.000000
    5  S  1  X    0.000000   0.000000   0.000000   0.000000   0.005395
    6  S  1  Y    0.000000   0.295882   0.000000   0.000000   0.000000
    7  S  1  Z    0.272202   0.000000  -0.115027   0.000000   0.000000
    8  S  1  X    0.000000   0.000000   0.000000   0.000000  -0.035958
    9  S  1  Y    0.000000  -1.146399   0.000000   0.000000   0.000000
   10  S  1  Z   -1.054377   0.000000   0.446282   0.000000   0.000000
   11  S  1  X    0.000000   0.000000   0.000000   0.000000   0.345065
   12  S  1  Y    0.000000   1.247744   0.000000   0.000000   0.000000
   13  S  1  Z    1.164553   0.000000  -0.459790   0.000000   0.000000
   14  S  1 XX   -0.050572   0.000000  -0.182908   0.000000   0.000000
   15  S  1 YY    0.069842   0.000000   0.072921   0.000000   0.000000
   16  S  1 ZZ   -0.019269   0.000000   0.109987   0.000000   0.000000
   17  S  1 XY    0.000000   0.000000   0.000000   0.826538   0.000000
   18  S  1 XZ    0.000000   0.000000   0.000000   0.000000   0.825327
   19  S  1 YZ    0.000000  -0.055122   0.000000   0.000000   0.000000
   20  O  2  S    0.006913   0.000000   0.009697   0.000000  -0.017631
   21  O  2  S   -0.007204   0.000000  -0.017212   0.000000   0.060181
   22  O  2  S   -0.144830   0.000000  -0.207963   0.000000   0.140323
   23  O  2  X    0.058713   0.000000   0.118745   0.000000   0.033942
   24  O  2  Y    0.000000  -0.104036   0.000000   0.370356   0.000000
   25  O  2  Z   -0.108451   0.000000   0.012559   0.000000   0.363860
   26  O  2  X   -0.097584   0.000000  -0.141373   0.000000   0.111455
   27  O  2  Y    0.000000  -0.092679   0.000000  -0.194928   0.000000
   28  O  2  Z   -0.076599   0.000000   0.050576   0.000000  -0.212653
   29  O  2 XX   -0.026359   0.000000  -0.046219   0.000000  -0.006030
   30  O  2 YY    0.013295   0.000000   0.023636   0.000000  -0.002666
   31  O  2 ZZ    0.013064   0.000000   0.022583   0.000000   0.008696
   32  O  2 XY    0.000000  -0.012973   0.000000  -0.061684   0.000000
   33  O  2 XZ   -0.007221   0.000000   0.014381   0.000000  -0.060905
   34  O  2 YZ    0.000000   0.000152   0.000000   0.006619   0.000000
   35  O  3  S    0.006913   0.000000   0.009697   0.000000   0.017631
   36  O  3  S   -0.007204   0.000000  -0.017212   0.000000  -0.060181
   37  O  3  S   -0.144830   0.000000  -0.207963   0.000000  -0.140323
   38  O  3  X   -0.058713   0.000000  -0.118745   0.000000   0.033942
   39  O  3  Y    0.000000  -0.104036   0.000000  -0.370356   0.000000
   40  O  3  Z   -0.108451   0.000000   0.012559   0.000000  -0.363860
   41  O  3  X    0.097584   0.000000   0.141373   0.000000   0.111455
   42  O  3  Y    0.000000  -0.092679   0.000000   0.194928   0.000000
   43  O  3  Z   -0.076599   0.000000   0.050576   0.000000   0.212653
   44  O  3 XX   -0.026359   0.000000  -0.046219   0.000000   0.006030
   45  O  3 YY    0.013295   0.000000   0.023636   0.000000   0.002666
   46  O  3 ZZ    0.013064   0.000000   0.022583   0.000000  -0.008696
   47  O  3 XY    0.000000   0.012973   0.000000  -0.061684   0.000000
   48  O  3 XZ    0.007221   0.000000  -0.014381   0.000000  -0.060905
   49  O  3 YZ    0.000000   0.000152   0.000000  -0.006619   0.000000

                     26         27         28         29         30
                    0.5056     0.5056     0.7169     0.7880     0.7988
                     B2         A1         A1         B1         A2  
    1  S  1  S    0.000000   0.000335  -0.004365   0.000000   0.000000
    2  S  1  S    0.000000   0.000316  -0.103826   0.000000   0.000000
    3  S  1  S    0.000000   0.004019  -0.166689   0.000000   0.000000
    4  S  1  S    0.000000  -0.001361   1.120261   0.000000   0.000000
    5  S  1  X    0.000000   0.000000   0.000000  -0.072082   0.000000
    6  S  1  Y    0.018113   0.000000   0.000000   0.000000   0.000000
    7  S  1  Z    0.000000   0.018328  -0.011994   0.000000   0.000000
    8  S  1  X    0.000000   0.000000   0.000000   0.426879   0.000000
    9  S  1  Y   -0.066967   0.000000   0.000000   0.000000   0.000000
   10  S  1  Z    0.000000  -0.067796   0.053775   0.000000   0.000000
   11  S  1  X    0.000000   0.000000   0.000000  -0.069333   0.000000
   12  S  1  Y    0.049178   0.000000   0.000000   0.000000   0.000000
   13  S  1  Z    0.000000   0.050296   0.063644   0.000000   0.000000
   14  S  1 XX    0.000000  -0.003266   0.748367   0.000000   0.000000
   15  S  1 YY    0.000000  -0.860101  -0.382050   0.000000   0.000000
   16  S  1 ZZ    0.000000   0.863367  -0.366316   0.000000   0.000000
   17  S  1 XY    0.000000   0.000000   0.000000   0.000000   0.578921
   18  S  1 XZ    0.000000   0.000000   0.000000   0.389416   0.000000
   19  S  1 YZ    0.995103   0.000000   0.000000   0.000000   0.000000
   20  O  2  S    0.000000   0.000126   0.058631  -0.017984   0.000000
   21  O  2  S    0.000000  -0.000140  -0.285348   0.116006   0.000000
   22  O  2  S    0.000000  -0.001792  -0.158155  -0.041055   0.000000
   23  O  2  X    0.000000  -0.003516   0.336833  -0.434756   0.000000
   24  O  2  Y   -0.044838   0.000000   0.000000   0.000000  -0.537282
   25  O  2  Z    0.000000  -0.044907   0.018540  -0.349858   0.000000
   26  O  2  X    0.000000   0.000759  -0.944057   0.685613   0.000000
   27  O  2  Y    0.021748   0.000000   0.000000   0.000000   0.742325
   28  O  2  Z    0.000000   0.021694   0.030890   0.467029   0.000000
   29  O  2 XX    0.000000   0.000842   0.034621  -0.051280   0.000000
   30  O  2 YY    0.000000  -0.018355  -0.018410   0.022216   0.000000
   31  O  2 ZZ    0.000000   0.017512  -0.016211   0.029063   0.000000
   32  O  2 XY    0.007326   0.000000   0.000000   0.000000  -0.067176
   33  O  2 XZ    0.000000   0.007278  -0.011712  -0.034344   0.000000
   34  O  2 YZ    0.020708   0.000000   0.000000   0.000000   0.006982
   35  O  3  S    0.000000   0.000126   0.058631   0.017984   0.000000
   36  O  3  S    0.000000  -0.000140  -0.285348  -0.116006   0.000000
   37  O  3  S    0.000000  -0.001792  -0.158155   0.041055   0.000000
   38  O  3  X    0.000000   0.003516  -0.336833  -0.434756   0.000000
   39  O  3  Y   -0.044838   0.000000   0.000000   0.000000   0.537282
   40  O  3  Z    0.000000  -0.044907   0.018540   0.349858   0.000000
   41  O  3  X    0.000000  -0.000759   0.944057   0.685613   0.000000
   42  O  3  Y    0.021748   0.000000   0.000000   0.000000  -0.742325
   43  O  3  Z    0.000000   0.021694   0.030890  -0.467029   0.000000
   44  O  3 XX    0.000000   0.000842   0.034621   0.051280   0.000000
   45  O  3 YY    0.000000  -0.018355  -0.018410  -0.022216   0.000000
   46  O  3 ZZ    0.000000   0.017512  -0.016211  -0.029063   0.000000
   47  O  3 XY   -0.007326   0.000000   0.000000   0.000000  -0.067176
   48  O  3 XZ    0.000000  -0.007278   0.011712  -0.034344   0.000000
   49  O  3 YZ    0.020708   0.000000   0.000000   0.000000  -0.006982

                     31         32         33         34         35
                    0.8109     0.8193     0.8196     0.9297     1.4479
                     B1         B2         A1         A1         A1  
    1  S  1  S    0.000000   0.000000   0.005268  -0.040221   0.018016
    2  S  1  S    0.000000   0.000000   0.021511  -0.198591   0.206135
    3  S  1  S    0.000000   0.000000   0.087307  -0.706059   0.443056
    4  S  1  S    0.000000   0.000000  -0.035431   0.649861  -1.482072
    5  S  1  X    0.065582   0.000000   0.000000   0.000000   0.000000
    6  S  1  Y    0.000000  -0.024508   0.000000   0.000000   0.000000
    7  S  1  Z    0.000000   0.000000  -0.024981  -0.003328   0.003526
    8  S  1  X   -0.398806   0.000000   0.000000   0.000000   0.000000
    9  S  1  Y    0.000000   0.131125   0.000000   0.000000   0.000000
   10  S  1  Z    0.000000   0.000000   0.135015   0.000321  -0.018287
   11  S  1  X    0.073732   0.000000   0.000000   0.000000   0.000000
   12  S  1  Y    0.000000  -0.583844   0.000000   0.000000   0.000000
   13  S  1  Z    0.000000   0.000000  -0.580226  -0.028116  -0.114449
   14  S  1 XX    0.000000   0.000000   0.013817   0.756164  -0.451998
   15  S  1 YY    0.000000   0.000000   0.049336  -0.377390   0.230626
   16  S  1 ZZ    0.000000   0.000000  -0.063154  -0.378773   0.221372
   17  S  1 XY    0.000000   0.000000   0.000000   0.000000   0.000000
   18  S  1 XZ    0.430442   0.000000   0.000000   0.000000   0.000000
   19  S  1 YZ    0.000000  -0.065203   0.000000   0.000000   0.000000
   20  O  2  S    0.013487   0.000000  -0.001196   0.028858   0.014066
   21  O  2  S   -0.118550   0.000000   0.018746  -0.123188  -1.112545
   22  O  2  S    0.080988   0.000000   0.001053  -0.128690   1.490133
   23  O  2  X    0.385366   0.000000   0.014363  -0.548563  -0.068378
   24  O  2  Y    0.000000  -0.631453   0.000000   0.000000   0.000000
   25  O  2  Z   -0.408893   0.000000  -0.630983  -0.001269  -0.015898
   26  O  2  X   -0.552020   0.000000  -0.011705   0.355850   0.559502
   27  O  2  Y    0.000000   0.871798   0.000000   0.000000   0.000000
   28  O  2  Z    0.573148   0.000000   0.869339   0.058411  -0.003983
   29  O  2 XX    0.030247   0.000000   0.004380   0.011448  -0.182475
   30  O  2 YY   -0.020092   0.000000  -0.001888  -0.007343   0.093255
   31  O  2 ZZ   -0.010155   0.000000  -0.002492  -0.004105   0.089219
   32  O  2 XY    0.000000  -0.020910   0.000000   0.000000   0.000000
   33  O  2 XZ   -0.057600   0.000000  -0.021468  -0.020475   0.029166
   34  O  2 YZ    0.000000  -0.000380   0.000000   0.000000   0.000000
   35  O  3  S   -0.013487   0.000000  -0.001196   0.028858   0.014066
   36  O  3  S    0.118550   0.000000   0.018746  -0.123188  -1.112545
   37  O  3  S   -0.080988   0.000000   0.001053  -0.128690   1.490133
   38  O  3  X    0.385366   0.000000  -0.014363   0.548563   0.068378
   39  O  3  Y    0.000000  -0.631453   0.000000   0.000000   0.000000
   40  O  3  Z    0.408893   0.000000  -0.630983  -0.001269  -0.015898
   41  O  3  X   -0.552020   0.000000   0.011705  -0.355850  -0.559502
   42  O  3  Y    0.000000   0.871798   0.000000   0.000000   0.000000
   43  O  3  Z   -0.573148   0.000000   0.869339   0.058411  -0.003983
   44  O  3 XX   -0.030247   0.000000   0.004380   0.011448  -0.182475
   45  O  3 YY    0.020092   0.000000  -0.001888  -0.007343   0.093255
   46  O  3 ZZ    0.010155   0.000000  -0.002492  -0.004105   0.089219
   47  O  3 XY    0.000000   0.020910   0.000000   0.000000   0.000000
   48  O  3 XZ   -0.057600   0.000000   0.021468   0.020475  -0.029166
   49  O  3 YZ    0.000000  -0.000380   0.000000   0.000000   0.000000

                     36         37         38         39         40
                    1.7960     2.0690     2.0690     2.0750     2.0750
                     B1         A2         B1         B2         A1  
    1  S  1  S    0.000000   0.000000   0.000000   0.000000   0.000100
    2  S  1  S    0.000000   0.000000   0.000000   0.000000  -0.000718
    3  S  1  S    0.000000   0.000000   0.000000   0.000000   0.000294
    4  S  1  S    0.000000   0.000000   0.000000   0.000000   0.006186
    5  S  1  X   -0.026972   0.000000   0.000022   0.000000   0.000000
    6  S  1  Y    0.000000   0.000000   0.000000   0.003150   0.000000
    7  S  1  Z    0.000000   0.000000   0.000000   0.000000  -0.002321
    8  S  1  X    0.141461   0.000000  -0.000234   0.000000   0.000000
    9  S  1  Y    0.000000   0.000000   0.000000  -0.006571   0.000000
   10  S  1  Z    0.000000   0.000000   0.000000   0.000000   0.004884
   11  S  1  X    1.602338   0.000000   0.000231   0.000000   0.000000
   12  S  1  Y    0.000000   0.000000   0.000000  -0.018465   0.000000
   13  S  1  Z    0.000000   0.000000   0.000000   0.000000   0.014483
   14  S  1 XX    0.000000   0.000000   0.000000   0.000000  -0.000420
   15  S  1 YY    0.000000   0.000000   0.000000   0.000000  -0.055023
   16  S  1 ZZ    0.000000   0.000000   0.000000   0.000000   0.055443
   17  S  1 XY    0.000000   0.011639   0.000000   0.000000   0.000000
   18  S  1 XZ    0.080740   0.000000  -0.011697   0.000000   0.000000
   19  S  1 YZ    0.000000   0.000000   0.000000  -0.064546   0.000000
   20  O  2  S    0.000983   0.000000   0.000084   0.000000   0.000034
   21  O  2  S   -1.256041   0.000000  -0.000082   0.000000   0.004175
   22  O  2  S    2.051386   0.000000  -0.000430   0.000000  -0.006444
   23  O  2  X   -0.103789   0.000000  -0.000125   0.000000   0.001688
   24  O  2  Y    0.000000  -0.001724   0.000000  -0.006470   0.000000
   25  O  2  Z    0.031357   0.000000   0.001749   0.000000   0.004963
   26  O  2  X    0.626435   0.000000  -0.000532   0.000000  -0.004592
   27  O  2  Y    0.000000   0.003233   0.000000   0.012470   0.000000
   28  O  2  Z   -0.104655   0.000000  -0.003194   0.000000  -0.009665
   29  O  2 XX   -0.223146   0.000000  -0.010301   0.000000  -0.017714
   30  O  2 YY    0.111968   0.000000   0.611845   0.000000   0.611658
   31  O  2 ZZ    0.111179   0.000000  -0.601544   0.000000  -0.593944
   32  O  2 XY    0.000000   0.096014   0.000000   0.148772   0.000000
   33  O  2 XZ    0.025998   0.000000  -0.095609   0.000000  -0.123683
   34  O  2 YZ    0.000000   0.700571   0.000000   0.691399   0.000000
   35  O  3  S   -0.000983   0.000000  -0.000084   0.000000   0.000034
   36  O  3  S    1.256041   0.000000   0.000082   0.000000   0.004175
   37  O  3  S   -2.051386   0.000000   0.000430   0.000000  -0.006444
   38  O  3  X   -0.103789   0.000000  -0.000125   0.000000  -0.001688
   39  O  3  Y    0.000000   0.001724   0.000000  -0.006470   0.000000
   40  O  3  Z   -0.031357   0.000000  -0.001749   0.000000   0.004963
   41  O  3  X    0.626435   0.000000  -0.000532   0.000000   0.004592
   42  O  3  Y    0.000000  -0.003233   0.000000   0.012470   0.000000
   43  O  3  Z    0.104655   0.000000   0.003194   0.000000  -0.009665
   44  O  3 XX    0.223146   0.000000   0.010301   0.000000  -0.017714
   45  O  3 YY   -0.111968   0.000000  -0.611845   0.000000   0.611658
   46  O  3 ZZ   -0.111179   0.000000   0.601544   0.000000  -0.593944
   47  O  3 XY    0.000000   0.096014   0.000000  -0.148772   0.000000
   48  O  3 XZ    0.025998   0.000000  -0.095609   0.000000   0.123683
   49  O  3 YZ    0.000000  -0.700571   0.000000   0.691399   0.000000

                     41         42         43         44         45
                    2.0827     2.0861     2.2033     2.2081     2.4227
                     B2         A1         B1         A2         B1  
    1  S  1  S    0.000000  -0.001745   0.000000   0.000000   0.000000
    2  S  1  S    0.000000   0.003233   0.000000   0.000000   0.000000
    3  S  1  S    0.000000  -0.016054   0.000000   0.000000   0.000000
    4  S  1  S    0.000000  -0.038245   0.000000   0.000000   0.000000
    5  S  1  X    0.000000   0.000000   0.021954   0.000000  -0.171923
    6  S  1  Y    0.026672   0.000000   0.000000   0.000000   0.000000
    7  S  1  Z    0.000000   0.027518   0.000000   0.000000   0.000000
    8  S  1  X    0.000000   0.000000  -0.089987   0.000000   0.721009
    9  S  1  Y   -0.059719   0.000000   0.000000   0.000000   0.000000
   10  S  1  Z    0.000000  -0.063461   0.000000   0.000000   0.000000
   11  S  1  X    0.000000   0.000000  -0.023180   0.000000   0.427274
   12  S  1  Y   -0.129144   0.000000   0.000000   0.000000   0.000000
   13  S  1  Z    0.000000  -0.131653   0.000000   0.000000   0.000000
   14  S  1 XX    0.000000   0.014085   0.000000   0.000000   0.000000
   15  S  1 YY    0.000000   0.014334   0.000000   0.000000   0.000000
   16  S  1 ZZ    0.000000  -0.028420   0.000000   0.000000   0.000000
   17  S  1 XY    0.000000   0.000000   0.000000   0.350707   0.000000
   18  S  1 XZ    0.000000   0.000000   0.334425   0.000000   0.144880
   19  S  1 YZ   -0.022398   0.000000   0.000000   0.000000   0.000000
   20  O  2  S    0.000000   0.000659  -0.000109   0.000000  -0.009626
   21  O  2  S    0.000000  -0.036291   0.050459   0.000000  -0.527232
   22  O  2  S    0.000000   0.048424  -0.068826   0.000000   0.869816
   23  O  2  X    0.000000  -0.018544   0.019364   0.000000  -0.110469
   24  O  2  Y   -0.042935   0.000000   0.000000  -0.040670   0.000000
   25  O  2  Z    0.000000  -0.042231  -0.041840   0.000000   0.007792
   26  O  2  X    0.000000   0.038812  -0.039463   0.000000   0.498999
   27  O  2  Y    0.078381   0.000000   0.000000   0.099164   0.000000
   28  O  2  Z    0.000000   0.077471   0.099828   0.000000  -0.032418
   29  O  2 XX    0.000000   0.153833   0.023882   0.000000   0.712176
   30  O  2 YY    0.000000   0.030801   0.071547   0.000000  -0.349512
   31  O  2 ZZ    0.000000  -0.184634  -0.095429   0.000000  -0.362665
   32  O  2 XY    0.696591   0.000000   0.000000   0.710061   0.000000
   33  O  2 XZ    0.000000   0.684147   0.708713   0.000000  -0.018932
   34  O  2 YZ   -0.148413   0.000000   0.000000  -0.096603   0.000000
   35  O  3  S    0.000000   0.000659   0.000109   0.000000   0.009626
   36  O  3  S    0.000000  -0.036291  -0.050459   0.000000   0.527232
   37  O  3  S    0.000000   0.048424   0.068826   0.000000  -0.869816
   38  O  3  X    0.000000   0.018544   0.019364   0.000000  -0.110469
   39  O  3  Y   -0.042935   0.000000   0.000000   0.040670   0.000000
   40  O  3  Z    0.000000  -0.042231   0.041840   0.000000  -0.007792
   41  O  3  X    0.000000  -0.038812  -0.039463   0.000000   0.498999
   42  O  3  Y    0.078381   0.000000   0.000000  -0.099164   0.000000
   43  O  3  Z    0.000000   0.077471  -0.099828   0.000000   0.032418
   44  O  3 XX    0.000000   0.153833  -0.023882   0.000000  -0.712176
   45  O  3 YY    0.000000   0.030801  -0.071547   0.000000   0.349512
   46  O  3 ZZ    0.000000  -0.184634   0.095429   0.000000   0.362665
   47  O  3 XY   -0.696591   0.000000   0.000000   0.710061   0.000000
   48  O  3 XZ    0.000000  -0.684147   0.708713   0.000000  -0.018932
   49  O  3 YZ   -0.148413   0.000000   0.000000   0.096603   0.000000

                     46
                    2.6829
                     A1  
    1  S  1  S    0.016859
    2  S  1  S   -0.145582
    3  S  1  S    0.015096
    4  S  1  S    1.098604
    5  S  1  X    0.000000
    6  S  1  Y    0.000000
    7  S  1  Z   -0.015773
    8  S  1  X    0.000000
    9  S  1  Y    0.000000
   10  S  1  Z    0.068971
   11  S  1  X    0.000000
   12  S  1  Y    0.000000
   13  S  1  Z    0.036847
   14  S  1 XX    0.832012
   15  S  1 YY   -0.419009
   16  S  1 ZZ   -0.413003
   17  S  1 XY    0.000000
   18  S  1 XZ    0.000000
   19  S  1 YZ    0.000000
   20  O  2  S    0.022659
   21  O  2  S    0.504773
   22  O  2  S   -0.935423
   23  O  2  X    0.032687
   24  O  2  Y    0.000000
   25  O  2  Z   -0.003104
   26  O  2  X   -0.604138
   27  O  2  Y    0.000000
   28  O  2  Z    0.059202
   29  O  2 XX   -0.758414
   30  O  2 YY    0.388127
   31  O  2 ZZ    0.370288
   32  O  2 XY    0.000000
   33  O  2 XZ    0.167347
   34  O  2 YZ    0.000000
   35  O  3  S    0.022659
   36  O  3  S    0.504773
   37  O  3  S   -0.935423
   38  O  3  X   -0.032687
   39  O  3  Y    0.000000
   40  O  3  Z   -0.003104
   41  O  3  X    0.604138
   42  O  3  Y    0.000000
   43  O  3  Z    0.059202
   44  O  3 XX   -0.758414
   45  O  3 YY    0.388127
   46  O  3 ZZ    0.370288
   47  O  3 XY    0.000000
   48  O  3 XZ   -0.167347
   49  O  3 YZ    0.000000
 ...... END OF RHF CALCULATION ......
 STEP CPU TIME =     4.71 TOTAL CPU TIME =        4.9 (    0.1 MIN)
 TOTAL WALL CLOCK TIME=        4.9 SECONDS, CPU UTILIZATION IS 100.00%

     ---------------------------------------------------------------------
     PROPERTIES FOR THE PBE      DFT FUNCTIONAL (RHF  TYPE) DENSITY MATRIX
     ---------------------------------------------------------------------

          -----------------
          ENERGY COMPONENTS
          -----------------

         WAVEFUNCTION NORMALIZATION =       1.0000000000

                ONE ELECTRON ENERGY =    -933.8570164942
                TWO ELECTRON ENERGY =     296.0186243809
           NUCLEAR REPULSION ENERGY =      89.6869009748
                                      ------------------
                       TOTAL ENERGY =    -548.1514911386

 ELECTRON-ELECTRON POTENTIAL ENERGY =     296.0186243809
  NUCLEUS-ELECTRON POTENTIAL ENERGY =   -1480.7915939026
   NUCLEUS-NUCLEUS POTENTIAL ENERGY =      89.6869009748
                                      ------------------
             TOTAL POTENTIAL ENERGY =   -1095.0860685469
               TOTAL KINETIC ENERGY =     546.9345774083
                 VIRIAL RATIO (V/T) =       2.0022249713

          ---------------------------------------
          MULLIKEN AND LOWDIN POPULATION ANALYSES
          ---------------------------------------

     ATOMIC MULLIKEN POPULATION IN EACH MOLECULAR ORBITAL

                      1          2          3          4          5

                  2.000000   2.000000   2.000000   2.000000   2.000000

    1             2.000005   0.001549   0.000473   2.000525   1.999824
    2            -0.000003   0.999226   0.999763  -0.000263   0.000088
    3            -0.000003   0.999226   0.999763  -0.000263   0.000088

                      6          7          8          9         10

                  2.000000   2.000000   2.000000   2.000000   2.000000

    1             2.000001   1.999997   0.573719   0.197213   1.161763
    2            -0.000001   0.000001   0.713140   0.901393   0.419118
    3            -0.000001   0.000001   0.713140   0.901393   0.419118

                     11         12         13         14         15

                  2.000000   2.000000   2.000000   2.000000   2.000000

    1             0.494705   1.107238   1.107965   0.055271   0.058320
    2             0.752647   0.446381   0.446018   0.972365   0.970840
    3             0.752647   0.446381   0.446018   0.972365   0.970840

                     16

                  2.000000

    1             0.491679
    2             0.754160
    3             0.754160

               ----- POPULATIONS IN EACH AO -----
                             MULLIKEN      LOWDIN
              1  S  1  S      2.00021     1.99612
              2  S  1  S      2.01088     1.97547
              3  S  1  S      1.02787     0.66255
              4  S  1  S      0.97258     0.58779
              5  S  1  X      1.99651     1.95255
              6  S  1  Y      1.99630     1.95467
              7  S  1  Z      1.99638     1.95543
              8  S  1  X      0.64151     0.58326
              9  S  1  Y      0.64270     0.62171
             10  S  1  Z      0.66197     0.64103
             11  S  1  X      0.05711     0.27941
             12  S  1  Y      0.46771     0.51450
             13  S  1  Z      0.46908     0.51817
             14  S  1 XX      0.04946     0.29898
             15  S  1 YY      0.14769     0.31999
             16  S  1 ZZ      0.05527     0.31821
             17  S  1 XY      0.05648     0.06537
             18  S  1 XZ      0.00053     0.06714
             19  S  1 YZ      0.00000     0.00049
             20  O  2  S      1.99809     1.98104
             21  O  2  S      0.85375     0.67115
             22  O  2  S      1.09676     0.59357
             23  O  2  X      0.98449     0.95391
             24  O  2  Y      0.84216     0.80911
             25  O  2  Z      0.88770     0.85509
             26  O  2  X      0.53108     0.60220
             27  O  2  Y      0.57363     0.60894
             28  O  2  Z      0.59583     0.63041
             29  O  2 XX      0.00139     0.21035
             30  O  2 YY      0.00411     0.21081
             31  O  2 ZZ      0.00294     0.20978
             32  O  2 XY      0.00293     0.00357
             33  O  2 XZ      0.00002     0.00365
             34  O  2 YZ      0.00000     0.00002
             35  O  3  S      1.99809     1.98104
             36  O  3  S      0.85375     0.67115
             37  O  3  S      1.09676     0.59357
             38  O  3  X      0.98449     0.95391
             39  O  3  Y      0.84216     0.80911
             40  O  3  Z      0.88770     0.85509
             41  O  3  X      0.53108     0.60220
             42  O  3  Y      0.57363     0.60894
             43  O  3  Z      0.59583     0.63041
             44  O  3 XX      0.00139     0.21035
             45  O  3 YY      0.00411     0.21081
             46  O  3 ZZ      0.00294     0.20978
             47  O  3 XY      0.00293     0.00357
             48  O  3 XZ      0.00002     0.00365
             49  O  3 YZ      0.00000     0.00002

          ----- MULLIKEN ATOMIC OVERLAP POPULATIONS -----
          (OFF-DIAGONAL ELEMENTS NEED TO BE MULTIPLIED BY 2)

             1           2           3

    1   14.9922466
    2    0.1290007   8.2391154
    3    0.1290007   0.0067599   8.2391154

          TOTAL MULLIKEN AND LOWDIN ATOMIC POPULATIONS
       ATOM         MULL.POP.    CHARGE          LOW.POP.     CHARGE
    1 S            15.250248    0.749752        15.312828    0.687172
    2 O             8.374876   -0.374876         8.343586   -0.343586
    3 O             8.374876   -0.374876         8.343586   -0.343586

          MULLIKEN SPHERICAL HARMONIC POPULATIONS
       ATOM           S       P       D      F      G      H      I    TOTAL
    1 S             6.01    8.93    0.31   0.00   0.00   0.00   0.00   15.25
    2 O             3.95    4.41    0.01   0.00   0.00   0.00   0.00    8.37
    3 O             3.95    4.41    0.01   0.00   0.00   0.00   0.00    8.37

          -------------------------------
          BOND ORDER AND VALENCE ANALYSIS     BOND ORDER THRESHOLD=0.050
          -------------------------------

                   BOND                       BOND                       BOND
  ATOM PAIR DIST  ORDER      ATOM PAIR DIST  ORDER      ATOM PAIR DIST  ORDER
    1   2  1.700  1.647        1   3  1.700  1.647        2   3  3.387  0.587

                       TOTAL       BONDED        FREE
      ATOM            VALENCE     VALENCE     VALENCE
    1 S                 3.294       3.294       0.000
    2 O                 2.234       2.234       0.000
    3 O                 2.234       2.234       0.000

          ---------------------
          ELECTROSTATIC MOMENTS
          ---------------------

 POINT   1           X           Y           Z (BOHR)    CHARGE
                 0.000000    0.000000    0.000000        0.00 (A.U.)
         DX          DY          DZ         /D/  (DEBYE)
     0.000000    0.000000   -0.203524    0.203524
 ...... END OF PROPERTY EVALUATION ......
 STEP CPU TIME =     0.01 TOTAL CPU TIME =        4.9 (    0.1 MIN)
 TOTAL WALL CLOCK TIME=        4.9 SECONDS, CPU UTILIZATION IS 100.00%
               580000  WORDS OF DYNAMIC MEMORY USED
 EXECUTION OF GAMESS TERMINATED NORMALLY Thu Feb 26 00:20:03 2015
 DDI: 263624 bytes (0.3 MB / 0 MWords) used by master data server.

 ----------------------------------------
 CPU timing information for all processes
 ========================================
 0: 4.866 + 0.31 = 4.898
 ----------------------------------------
 ddikick.x: exited gracefully.
----- accounting info -----
Files used on the master node dftfe.crc.nd.edu were:
-rw-r--r-- 1 pmehta1 campus   37475 Feb 26 00:20 /tmp/gamess.dat
-rw-r--r-- 1 pmehta1 campus     142 Feb 26 00:19 /tmp/gamess.F05
-rw-r--r-- 1 pmehta1 campus 1980264 Feb 26 00:19 /tmp/gamess.F08
-rw-r--r-- 1 pmehta1 campus 1220440 Feb 26 00:20 /tmp/gamess.F10
Thu Feb 26 00:20:06 EST 2015
0.240u 0.180s 0:08.33 5.0%	0+0k 0+112io 0pf+0w
