----- GAMESS execution script 'rungms' -----
This job is running on host dftfe.crc.nd.edu
under operating system Linux at Thu Feb 26 00:22:50 EST 2015
Available scratch disk space (Kbyte units) at beginning of the job is
Filesystem     1K-blocks     Used Available Use% Mounted on
/dev/sda2      147771864 22818872 117446560  17% /
GAMESS temporary binary files will be written to /tmp
GAMESS supplementary output files will be written to /tmp
Copying input file gamess.inp to your run's scratch directory...

 Distributed Data Interface kickoff program.
 Initiating 1 compute processes on 1 nodes to run the following command:
 /opt/crc/gamess/2012R1/gamess/gamess.00.x gamess 

          ******************************************************
          *         GAMESS VERSION =  1 MAY 2012 (R1)          *
          *             FROM IOWA STATE UNIVERSITY             *
          * M.W.SCHMIDT, K.K.BALDRIDGE, J.A.BOATZ, S.T.ELBERT, *
          *   M.S.GORDON, J.H.JENSEN, S.KOSEKI, N.MATSUNAGA,   *
          *          K.A.NGUYEN, S.J.SU, T.L.WINDUS,           *
          *       TOGETHER WITH M.DUPUIS, J.A.MONTGOMERY       *
          *         J.COMPUT.CHEM.  14, 1347-1363(1993)        *
          **************** 64 BIT LINUX VERSION ****************

  SINCE 1993, STUDENTS AND POSTDOCS WORKING AT IOWA STATE UNIVERSITY
  AND ALSO IN THEIR VARIOUS JOBS AFTER LEAVING ISU HAVE MADE IMPORTANT
  CONTRIBUTIONS TO THE CODE:
     IVANA ADAMOVIC, CHRISTINE AIKENS, YURI ALEXEEV, POOJA ARORA,
     ANDREY ASADCHEV, ROB BELL, PRADIPTA BANDYOPADHYAY, JONATHAN BENTZ,
     BRETT BODE, GALINA CHABAN, WEI CHEN, CHEOL HO CHOI, PAUL DAY,
     ALBERT DEFUSCO, TIM DUDLEY, DMITRI FEDOROV, GRAHAM FLETCHER,
     MARK FREITAG, KURT GLAESEMANN, DAN KEMP, GRANT MERRILL,
     NORIYUKI MINEZAWA, JONATHAN MULLIN, TAKESHI NAGATA,
     SEAN NEDD, HEATHER NETZLOFF, BOSILJKA NJEGIC, RYAN OLSON, MIKE PAK,
     JIM SHOEMAKER, LYUDMILA SLIPCHENKO, SAROM SOK, JIE SONG,
     TETSUYA TAKETSUGU, SIMON WEBB, SOOHAENG YOO, FEDERICO ZAHARIEV

  ADDITIONAL CODE HAS BEEN PROVIDED BY COLLABORATORS IN OTHER GROUPS:
     IOWA STATE UNIVERSITY:
          JOE IVANIC, LAIMUTIS BYTAUTAS, KLAUS RUEDENBERG
     UNIVERSITY OF TOKYO: KIMIHIKO HIRAO, TAKAHITO NAKAJIMA,
          TAKAO TSUNEDA, MUNEAKI KAMIYA, SUSUMU YANAGISAWA,
          KIYOSHI YAGI, MAHITO CHIBA, SEIKEN TOKURA, NAOAKI KAWAKAMI
     UNIVERSITY OF AARHUS: FRANK JENSEN
     UNIVERSITY OF IOWA: VISVALDAS KAIRYS, HUI LI
     NATIONAL INST. OF STANDARDS AND TECHNOLOGY: WALT STEVENS, DAVID GARMER
     UNIVERSITY OF PISA: BENEDETTA MENNUCCI, JACOPO TOMASI
     UNIVERSITY OF MEMPHIS: HENRY KURTZ, PRAKASHAN KORAMBATH
     UNIVERSITY OF ALBERTA: TOBY ZENG, MARIUSZ KLOBUKOWSKI
     UNIVERSITY OF NEW ENGLAND: MARK SPACKMAN
     MIE UNIVERSITY: HIROAKI UMEDA
     MICHIGAN STATE UNIVERSITY:
          KAROL KOWALSKI, MARTA WLOCH, JEFFREY GOUR, JESSE LUTZ, PIOTR PIECUCH
     UNIVERSITY OF SILESIA: MONIKA MUSIAL, STANISLAW KUCHARSKI
     FACULTES UNIVERSITAIRES NOTRE-DAME DE LA PAIX:
          OLIVIER QUINET, BENOIT CHAMPAGNE
     UNIVERSITY OF CALIFORNIA - SANTA BARBARA: BERNARD KIRTMAN
     INSTITUTE FOR MOLECULAR SCIENCE:
          KAZUYA ISHIMURA, MICHIO KATOUDA, AND SHIGERU NAGASE
     UNIVERSITY OF NOTRE DAME: DAN CHIPMAN
     KYUSHU UNIVERSITY:
          HARUYUKI NAKANO,
          FENG LONG GU, JACEK KORCHOWIEC, MARCIN MAKOWSKI, AND YURIKO AOKI,
          HIROTOSHI MORI AND EISAKU MIYOSHI
     PENNSYLVANIA STATE UNIVERSITY:
          TZVETELIN IORDANOV, CHET SWALINA, JONATHAN SKONE,
          SHARON HAMMES-SCHIFFER
     WASEDA UNIVERSITY:
          MASATO KOBAYASHI, TOMOKO AKAMA, TSUGUKI TOUMA,
          TAKESHI YOSHIKAWA, YASUHIRO IKABATA, HIROMI NAKAI
     UNIVERSITY OF NEBRASKA:
          PEIFENG SU, DEJUN SI, NANDUN THELLAMUREGE, YALI WANG, HUI LI
     UNIVERSITY OF ZURICH:
          ROBERTO PEVERATI, KIM BALDRIDGE
     N. COPERNICUS UNIVERSITY AND JACKSON STATE UNIVERSITY:
          MARIA BARYSZ

 EXECUTION OF GAMESS BEGUN Thu Feb 26 00:22:50 2015

            ECHO OF THE FIRST FEW INPUT CARDS -
 INPUT CARD> $BASIS GBASIS=PC1 $END                                                         
 INPUT CARD> $CONTRL COORD=ZMT ISPHER=1 RUNTYP=ENERGY DFTTYP=PBE $END                       
 INPUT CARD>                                                                                
 INPUT CARD> $DATA                                                                          
 INPUT CARD>Title                                                                           
 INPUT CARD>Cnv 2                                                                           
 INPUT CARD>                                                                                
 INPUT CARD>S                                                                               
 INPUT CARD>O 1 2.00                                                                        
 INPUT CARD>O 1 2.00 2 130.0                                                                
 INPUT CARD> $END                                                                           
    1000000 WORDS OF MEMORY AVAILABLE

     BASIS OPTIONS
     -------------
     GBASIS=PC1          IGAUSS=       0      POLAR=NONE    
     NDFUNC=       0     NFFUNC=       0     DIFFSP=       F
     NPFUNC=       0      DIFFS=       F     BASNAM=        


     RUN TITLE
     ---------
 Title                                                                           

 THE POINT GROUP OF THE MOLECULE IS CNV     
 THE ORDER OF THE PRINCIPAL AXIS IS     2

 YOUR FULLY SUBSTITUTED Z-MATRIX IS
 S   
 O      1   2.0000000
 O      1   2.0000000  2  130.0000

 THE MOMENTS OF INERTIA ARE (AMU-ANGSTROM**2)
 IXX=    11.424   IYY=   105.105   IZZ=   116.529

 ATOM      ATOMIC                      COORDINATES (BOHR)
           CHARGE         X                   Y                   Z
 S          16.0     0.0000000000        0.0000000000       -0.7988543399
 O           8.0    -3.4253467561        0.0000000000        0.7984110843
 O           8.0     3.4253467561        0.0000000000        0.7984110843

          INTERNUCLEAR DISTANCES (ANGS.)
          ------------------------------

                1 S          2 O          3 O     

   1 S       0.0000000    2.0000000 *  2.0000000 *
   2 O       2.0000000 *  0.0000000    3.6252311  
   3 O       2.0000000 *  3.6252311    0.0000000  

  * ... LESS THAN  3.000


     ATOMIC BASIS SET
     ----------------
 THE CONTRACTED PRIMITIVE FUNCTIONS HAVE BEEN UNNORMALIZED
 THE CONTRACTED BASIS FUNCTIONS ARE NOW NORMALIZED TO UNITY

  SHELL TYPE  PRIMITIVE        EXPONENT          CONTRACTION COEFFICIENT(S)

 S         

      1   S       1         55510.0000000    0.000587229760
      1   S       2          8326.7000000    0.004532413947
      1   S       3          1895.6000000    0.023265261648
      1   S       4           536.7700000    0.089696133027
      1   S       5           174.6700000    0.254098332277
      1   S       6            62.5780000    0.438665087637
      1   S       7            23.5730000    0.314547135094
      1   S       8             5.8908000    0.032727897102

      2   S       9          8326.7000000   -0.000019755715
      2   S      10          1895.6000000   -0.000043822381
      2   S      11           536.7700000   -0.001730264906
      2   S      12           174.6700000   -0.009381263460
      2   S      13            62.5780000   -0.064050766303
      2   S      14            23.5730000   -0.082478179196
      2   S      15             5.8908000    0.478342956889
      2   S      16             2.1852000    0.626896670208

      3   S      17          1895.6000000    0.000016227260
      3   S      18           536.7700000    0.000191135619
      3   S      19           174.6700000    0.001952069674
      3   S      20            62.5780000    0.010578701087
      3   S      21            23.5730000    0.022164934551
      3   S      22             5.8908000   -0.184968323118
      3   S      23             2.1852000   -0.480920750976
      3   S      24             0.4528200    1.243822243872

      4   S      25             0.1620200    1.000000000000

      5   P      26           395.4500000    0.004642761329
      5   P      27            92.8340000    0.036023396489
      5   P      28            29.2660000    0.149058869978
      5   P      29            10.5950000    0.360033266263
      5   P      30             4.0272000    0.455756476221
      5   P      31             1.5484000    0.206167664178

      6   P      32            92.8340000    0.000169901442
      6   P      33            29.2660000   -0.002541839934
      6   P      34            10.5950000   -0.007867614595
      6   P      35             4.0272000   -0.037231009184
      6   P      36             1.5484000    0.161417246830
      6   P      37             0.4613400    0.902230419976

      7   P      38             0.1313100    1.000000000000

      8   D      39             0.5500000    1.000000000000

 O         

     15   S      40          2306.7000000    0.005424388755
     15   S      41           347.1500000    0.040474749465
     15   S      42            78.8900000    0.180219634554
     15   S      43            21.8760000    0.462370311787
     15   S      44             6.6646000    0.454888396263

     16   S      45           347.1500000   -0.000655003786
     16   S      46            78.8900000   -0.005362052952
     16   S      47            21.8760000   -0.074902158894
     16   S      48             6.6646000   -0.181442579655
     16   S      49             1.0669000    1.102006874042

     17   S      50             0.3070000    1.000000000000

     18   P      51            17.0220000    0.068979967443
     18   P      52             3.6838000    0.351985516325
     18   P      53             0.9923400    0.724036547822

     19   P      54             0.2448700    1.000000000000

     20   D      55             1.0000000    1.000000000000

 TOTAL NUMBER OF BASIS SET SHELLS             =   20
 NUMBER OF CARTESIAN GAUSSIAN BASIS FUNCTIONS =   49
 NOTE: THIS RUN WILL RESTRICT THE MO VARIATION SPACE TO SPHERICAL HARMONICS.
 THE NUMBER OF ORBITALS KEPT IN THE VARIATIONAL SPACE WILL BE PRINTED LATER.
 NUMBER OF ELECTRONS                          =   32
 CHARGE OF MOLECULE                           =    0
 SPIN MULTIPLICITY                            =    1
 NUMBER OF OCCUPIED ORBITALS (ALPHA)          =   16
 NUMBER OF OCCUPIED ORBITALS (BETA )          =   16
 TOTAL NUMBER OF ATOMS                        =    3
 THE NUCLEAR REPULSION ENERGY IS       77.0768077752

     LEBEDEV GRID-BASED DFT OPTIONS
     ------------------------------
     DFTTYP=PBE     
     NRAD  =      96     NLEB  =     302
     NRAD0 =      24     NLEB0 =     110
     SWOFF =    5.00E-03 (PURE SCF -> DFT)
     SWITCH=    3.00E-04 (COARSE -> TIGHT GRID)
     THRESH=    0.00E+00 GTHRE=    1.00E+00

 GRIMME'S EMPIRICAL DISPERSION CORRECTION= F

     $CONTRL OPTIONS
     ---------------
 SCFTYP=RHF          RUNTYP=ENERGY       EXETYP=RUN     
 MPLEVL=       0     CITYP =NONE         CCTYP =NONE         VBTYP =NONE    
 DFTTYP=PBE          TDDFT =NONE    
 MULT  =       1     ICHARG=       0     NZVAR =       0     COORD =ZMT     
 PP    =NONE         RELWFN=NONE         LOCAL =NONE         NUMGRD=       F
 ISPHER=       1     NOSYM =       0     MAXIT =      30     UNITS =ANGS    
 PLTORB=       F     MOLPLT=       F     AIMPAC=       F     FRIEND=        
 NPRINT=       7     IREST =       0     GEOM  =INPUT   
 NORMF =       0     NORMP =       0     ITOL  =      20     ICUT  =       9
 INTTYP=BEST         GRDTYP=BEST         QMTTOL= 1.0E-06

     $SYSTEM OPTIONS
     ---------------
  REPLICATED MEMORY=     1000000 WORDS (ON EVERY NODE).
 DISTRIBUTED MEMDDI=           0 MILLION WORDS IN AGGREGATE,
 MEMDDI DISTRIBUTED OVER   1 PROCESSORS IS           0 WORDS/PROCESSOR.
 TOTAL MEMORY REQUESTED ON EACH PROCESSOR=     1000000 WORDS.
 TIMLIM=      525600.00 MINUTES, OR     365.0 DAYS.
 PARALL= F  BALTYP=  DLB     KDIAG=    0  COREFL= F
 MXSEQ2=     300 MXSEQ3=     150

          ----------------
          PROPERTIES INPUT
          ----------------

     MOMENTS            FIELD           POTENTIAL          DENSITY
 IEMOM =       1   IEFLD =       0   IEPOT =       0   IEDEN =       0
 WHERE =COMASS     WHERE =NUCLEI     WHERE =NUCLEI     WHERE =NUCLEI  
 OUTPUT=BOTH       OUTPUT=BOTH       OUTPUT=BOTH       OUTPUT=BOTH    
 IEMINT=       0   IEFINT=       0                     IEDINT=       0
                                                       MORB  =       0
          EXTRAPOLATION IN EFFECT
          DIIS IN EFFECT
 ORBITAL PRINTING OPTION: NPREO=     1    49     2     1

     -------------------------------
     INTEGRAL TRANSFORMATION OPTIONS
     -------------------------------
     NWORD  =            0
     CUTOFF = 1.0E-09     MPTRAN =       0
     DIRTRF =       F     AOINTS =DUP     

          ----------------------
          INTEGRAL INPUT OPTIONS
          ----------------------
 NOPK  =       1 NORDER=       0 SCHWRZ=       F

   --- ENCODED Z MATRIX ---
 COORD  TYPE   I   J   K   L   M   N
    1      1    3   1
    2      1    2   1
    3      2    2   1   3

 THE DETERMINANT OF THE G MATRIX IS 10**(    -4)

 THE DETERMINANT OF THE G MATRIX IS 10**(    -4)
 * * * WARNING * * *
 YOUR B MATRIX HAS A SMALL DETERMINANT.
 THIS SUGGESTS YOU MAY HAVE BADLY CHOSEN COORDINATES.

     ------------------------------------------
     THE POINT GROUP IS CNV, NAXIS= 2, ORDER= 4
     ------------------------------------------

 -- VARIATIONAL SPACE WILL BE RESTRICTED TO PURE SPHERICAL HARMONICS ONLY --
 AFTER EXCLUDING CONTAMINANT COMBINATIONS FROM THE CARTESIAN GAUSSIAN BASIS
 SET, THE NUMBER OF SPHERICAL HARMONICS KEPT IN THE VARIATION SPACE IS   46

     DIMENSIONS OF THE SYMMETRY SUBSPACES ARE
 A1  =   19     A2  =    5     B1  =   14     B2  =    8

 ..... DONE SETTING UP THE RUN .....
 STEP CPU TIME =     0.01 TOTAL CPU TIME =        0.0 (    0.0 MIN)
 TOTAL WALL CLOCK TIME=        0.0 SECONDS, CPU UTILIZATION IS  50.00%

          ********************
          1 ELECTRON INTEGRALS
          ********************
 ...... END OF ONE-ELECTRON INTEGRALS ......
 STEP CPU TIME =     0.00 TOTAL CPU TIME =        0.0 (    0.0 MIN)
 TOTAL WALL CLOCK TIME=        0.0 SECONDS, CPU UTILIZATION IS  33.33%

          -------------
          GUESS OPTIONS
          -------------
          GUESS =HUCKEL            NORB  =       0          NORDER=       0
          MIX   =       F          PRTMO =       F          PUNMO =       F
          TOLZ  = 1.0E-08          TOLE  = 1.0E-05
          SYMDEN=       F          PURIFY=       F

 INITIAL GUESS ORBITALS GENERATED BY HUCKEL   ROUTINE.
 HUCKEL GUESS REQUIRES     21583 WORDS.

 STATISTICS FOR GENERATION OF SYMMETRY ORBITAL -Q- MATRIX
 NUMBER OF CARTESIAN ATOMIC ORBITALS=         49
 NUMBER OF SPHERICAL CONTAMINANTS DROPPED=     3
 NUMBER OF LINEARLY DEPENDENT MOS DROPPED=     0
 TOTAL NUMBER OF MOS IN VARIATION SPACE=      46

 SYMMETRIES FOR INITIAL GUESS ORBITALS FOLLOW.   BOTH SET(S).
    16 ORBITALS ARE OCCUPIED (    7 CORE ORBITALS).
     8=?A1      9=?B1     10=?A1     11=B1      12=B2      13=A1      14=A2  
    15=B1      16=A1      17=B2      18=A1      19=B1      20=A1      21=A1  
    22=A1      23=A1      24=A1      25=A1      26=A1  
 ...... END OF INITIAL ORBITAL SELECTION ......
 STEP CPU TIME =     0.01 TOTAL CPU TIME =        0.0 (    0.0 MIN)
 TOTAL WALL CLOCK TIME=        0.0 SECONDS, CPU UTILIZATION IS  66.67%

                    ----------------------
                    AO INTEGRAL TECHNOLOGY
                    ----------------------
     S,P,L SHELL ROTATED AXIS INTEGRALS, REPROGRAMMED BY
        KAZUYA ISHIMURA (IMS) AND JOSE SIERRA (SYNSTAR).
     S,P,D,L SHELL ROTATED AXIS INTEGRALS PROGRAMMED BY
        KAZUYA ISHIMURA (INSTITUTE FOR MOLECULAR SCIENCE).
     S,P,D,F,G SHELL TO TOTAL QUARTET ANGULAR MOMENTUM SUM 5,
        ERIC PROGRAM BY GRAHAM FLETCHER (ELORET AND NASA ADVANCED
        SUPERCOMPUTING DIVISION, AMES RESEARCH CENTER).
     S,P,D,F,G,L SHELL GENERAL RYS QUADRATURE PROGRAMMED BY
        MICHEL DUPUIS (PACIFIC NORTHWEST NATIONAL LABORATORY).

          --------------------
          2 ELECTRON INTEGRALS
          --------------------

 THE -PK- OPTION IS OFF, THE INTEGRALS ARE NOT IN SUPERMATRIX FORM.
 STORING   15000 INTEGRALS/RECORD ON DISK, USING 12 BYTES/INTEGRAL.
 TWO ELECTRON INTEGRAL EVALUATION REQUIRES   90606 WORDS OF MEMORY.
 II,JST,KST,LST =  1  1  1  1 NREC =         1 INTLOC =    1
 II,JST,KST,LST =  2  1  1  1 NREC =         1 INTLOC =    2
 II,JST,KST,LST =  3  1  1  1 NREC =         1 INTLOC =    7
 II,JST,KST,LST =  4  1  1  1 NREC =         1 INTLOC =   22
 II,JST,KST,LST =  5  1  1  1 NREC =         1 INTLOC =   56
 II,JST,KST,LST =  6  1  1  1 NREC =         1 INTLOC =  125
 II,JST,KST,LST =  7  1  1  1 NREC =         1 INTLOC =  329
 II,JST,KST,LST =  8  1  1  1 NREC =         1 INTLOC =  776
 II,JST,KST,LST =  9  1  1  1 NREC =         1 INTLOC = 2864
 II,JST,KST,LST = 10  1  1  1 NREC =         1 INTLOC = 2864
 II,JST,KST,LST = 11  1  1  1 NREC =         1 INTLOC = 2864
 II,JST,KST,LST = 12  1  1  1 NREC =         1 INTLOC = 2864
 II,JST,KST,LST = 13  1  1  1 NREC =         1 INTLOC = 2864
 II,JST,KST,LST = 14  1  1  1 NREC =         1 INTLOC = 2864
 II,JST,KST,LST = 15  1  1  1 NREC =         1 INTLOC = 2864
 II,JST,KST,LST = 16  1  1  1 NREC =         1 INTLOC = 4676
 II,JST,KST,LST = 17  1  1  1 NREC =         1 INTLOC = 7609
 II,JST,KST,LST = 18  1  1  1 NREC =         1 INTLOC =11843
 II,JST,KST,LST = 19  1  1  1 NREC =         2 INTLOC =11877
 II,JST,KST,LST = 20  1  1  1 NREC =         4 INTLOC =11063
 TOTAL NUMBER OF NONZERO TWO-ELECTRON INTEGRALS =              145340
         10 INTEGRAL RECORDS WERE STORED ON DISK FILE  8.
  ...... END OF TWO-ELECTRON INTEGRALS .....
 STEP CPU TIME =     0.15 TOTAL CPU TIME =        0.2 (    0.0 MIN)
 TOTAL WALL CLOCK TIME=        0.2 SECONDS, CPU UTILIZATION IS  94.44%

          --------------------------
               R-PBE SCF CALCULATION
          --------------------------

     NUCLEAR ENERGY =        77.0768077752
     MAXIT =   30     NPUNCH=    2
     EXTRAP=T  DAMP=F  SHIFT=F  RSTRCT=F  DIIS=T  DEM=F  SOSCF=F
         DENSITY MATRIX CONVERGENCE THRESHOLD=  1.00E-05
     COARSE -> FINE DFT GRID SWITCH THRESHOLD=  3.00E-04 (SWITCH IN $DFT)
                   HF -> DFT SWITCH THRESHOLD=  5.00E-03 (SWOFF IN $DFT)
     MEMORY REQUIRED FOR RHF ITERS=    183108 WORDS.

 DFT CODE IS SWITCHING FROM THE FINE GRID NRAD= 96,  NLEB=  302
                      TO THE COARSE GRID NRAD0= 24, NLEB0=  110

     EXCHANGE FUNCTIONAL   =PBE       
     CORRELATION FUNCTIONAL=PBE       
     DFT THRESHOLD         =.460E-07
     GRID CHANGE THRESHOLD =.300E-03
 FOR AN EULER-MACLAURIN QUADRATURE USING  96 RADIAL POINTS:
 SMALLEST GAUSSIAN PRIMITIVE EXPONENT=        0.1313100000 OF TYPE -P-
 ON ATOM NUMBER   1 HAS RADIAL NORMALIZATION=  1.000000
  LARGEST GAUSSIAN PRIMITIVE EXPONENT=    55510.0000000000 OF TYPE -S-
 ON ATOM NUMBER   1 HAS RADIAL NORMALIZATION=  0.999999
 DFT IS SWITCHED OFF, PERFORMING PURE SCF UNTIL SWOFF THRESHOLD IS REACHED.

 ITER EX DEM     TOTAL ENERGY        E CHANGE  DENSITY CHANGE    DIIS ERROR
   1  0  0     -545.5095553825  -545.5095553825   0.867185555   0.951386809
   2  1  0     -545.0436724227     0.4658829598   1.064806623   0.863547954
   3  2  0     -543.8556767833     1.1879956394   1.602845368   0.865160606
   4  3  0     -538.2626514736     5.5930253097   1.657099530   2.214485287
   5  0  0     -539.4011831019    -1.1385316283   0.798978279   1.221456365
          * * *   INITIATING DIIS PROCEDURE   * * *
   6  1  0     -545.6751525532    -6.2739694513   1.179499942   0.481706101
   7  2  0     -543.8068038000     1.8683487532   0.767055218   1.173018648
   8  3  0     -546.6745123049    -2.8677085049   0.096387531   0.166952212
   9  4  0     -546.7478542463    -0.0733419414   0.072262654   0.067025708
  10  5  0     -546.7738475217    -0.0259932754   0.044889603   0.023368045
  11  6  0     -546.7813879038    -0.0075403821   0.048716622   0.020334958
  12  7  0     -546.7877504878    -0.0063625840   0.108760418   0.016464601
  13  8  0     -546.7963729973    -0.0086225096   0.010998211   0.006478227
  14  9  0     -546.7965865786    -0.0002135812   0.013924840   0.002170647
  15 10  0     -546.7967064759    -0.0001198973   0.003890964   0.001380573
 CONVERGED TO SWOFF, SO DFT CALCULATION IS NOW SWITCHED ON.
          * * *   INITIATING DIIS PROCEDURE   * * *
  16 11  0     -547.9242690030    -1.1275625271   0.739675142   0.110313111
  17 12  0     -547.9218769818     0.0023920213   0.476557389   0.218270597
  18 13  0     -547.8613657936     0.0605111882   0.179386773   0.336290518
  19 14  0     -548.0890629974    -0.2276972038   0.033614560   0.031011670
  20 15  0     -548.0921863786    -0.0031233812   0.005026254   0.008922636
  21 16  0     -548.0923858712    -0.0001994926   0.000692887   0.001956878
  22 17  0     -548.0923951521    -0.0000092809   0.000959403   0.000998886
  23 18  0     -548.0923972525    -0.0000021004   0.000070872   0.000055905
 DFT CODE IS SWITCHING BACK TO THE FINE GRID
          * * *   INITIATING DIIS PROCEDURE   * * *
  24 19  0     -548.0689919879     0.0234052646   0.016935795   0.013786909
  25 20  0     -548.0692973912    -0.0003054033   0.020075218   0.005333874
  26 21  0     -548.0681395448     0.0011578464   0.021196806   0.025340673
  27 22  0     -548.0693800263    -0.0012404814   0.002111207   0.002263475
  28 23  0     -548.0693962898    -0.0000162636   0.000159689   0.000172839
  29 24  0     -548.0693964172    -0.0000001274   0.000021672   0.000017408
  30 25  0     -548.0693964175    -0.0000000002   0.000017926   0.000018813

 SCF IS UNCONVERGED, TOO MANY ITERATIONS
     TIME TO FORM FOCK OPERATORS=       3.6 SECONDS (       0.1 SEC/ITER)
     TIME TO SOLVE SCF EQUATIONS=       0.1 SECONDS (       0.0 SEC/ITER)

 FINAL R-PBE ENERGY IS        0.0000000000 AFTER  30 ITERATIONS
 DFT EXCHANGE + CORRELATION ENERGY =       -42.0644018132
 TOTAL ELECTRON NUMBER             =        31.9999748362

          ------------
          EIGENVECTORS
          ------------

                      1          2          3          4          5
                  -88.2234   -18.8469   -18.8469    -7.8438    -5.8653
                     A1         B1         A1         A1         B1  
    1  S  1  S    1.002978   0.000000  -0.000069  -0.274136   0.000000
    2  S  1  S   -0.010262   0.000000  -0.000923   1.039682   0.000000
    3  S  1  S    0.001793   0.000000  -0.001910   0.040505   0.000000
    4  S  1  S   -0.001028   0.000000   0.004773  -0.013169   0.000000
    5  S  1  X    0.000000   0.000072   0.000000   0.000000   0.996919
    6  S  1  Y    0.000000   0.000000   0.000000   0.000000   0.000000
    7  S  1  Z    0.000047   0.000000  -0.000040   0.006705   0.000000
    8  S  1  X    0.000000   0.000015   0.000000   0.000000   0.008828
    9  S  1  Y    0.000000   0.000000   0.000000   0.000000   0.000000
   10  S  1  Z    0.000000   0.000000   0.000046   0.000341   0.000000
   11  S  1  X    0.000000  -0.004316   0.000000   0.000000  -0.000015
   12  S  1  Y    0.000000   0.000000   0.000000   0.000000   0.000000
   13  S  1  Z   -0.000069   0.000000   0.001767  -0.000695   0.000000
   14  S  1 XX   -0.000033   0.000000   0.001143  -0.000090   0.000000
   15  S  1 YY    0.000025   0.000000  -0.000817   0.000092   0.000000
   16  S  1 ZZ    0.000009   0.000000  -0.000326  -0.000002   0.000000
   17  S  1 XY    0.000000   0.000000   0.000000   0.000000   0.000000
   18  S  1 XZ    0.000000  -0.001195   0.000000   0.000000   0.000344
   19  S  1 YZ    0.000000   0.000000   0.000000   0.000000   0.000000
   20  O  2  S   -0.000004   0.703222   0.703201  -0.000021  -0.000001
   21  O  2  S   -0.000037   0.024682   0.024423  -0.000183  -0.000023
   22  O  2  S    0.000133  -0.009671  -0.008825   0.001123   0.000130
   23  O  2  X    0.000008   0.000582   0.000665   0.000077   0.000046
   24  O  2  Y    0.000000   0.000000   0.000000   0.000000   0.000000
   25  O  2  Z   -0.000008  -0.000375  -0.000216  -0.000074  -0.000024
   26  O  2  X    0.000049  -0.001660  -0.001792   0.000259   0.000050
   27  O  2  Y    0.000000   0.000000   0.000000   0.000000   0.000000
   28  O  2  Z   -0.000007   0.001190   0.000469   0.000034  -0.000029
   29  O  2 XX   -0.000008  -0.000109  -0.000204  -0.000218   0.000015
   30  O  2 YY    0.000006   0.000120   0.000140   0.000158  -0.000013
   31  O  2 ZZ    0.000001  -0.000011   0.000065   0.000059  -0.000002
   32  O  2 XY    0.000000   0.000000   0.000000   0.000000   0.000000
   33  O  2 XZ    0.000010   0.000176   0.000130   0.000224  -0.000022
   34  O  2 YZ    0.000000   0.000000   0.000000   0.000000   0.000000
   35  O  3  S   -0.000004  -0.703222   0.703201  -0.000021   0.000001
   36  O  3  S   -0.000037  -0.024682   0.024423  -0.000183   0.000023
   37  O  3  S    0.000133   0.009671  -0.008825   0.001123  -0.000130
   38  O  3  X   -0.000008   0.000582  -0.000665  -0.000077   0.000046
   39  O  3  Y    0.000000   0.000000   0.000000   0.000000   0.000000
   40  O  3  Z   -0.000008   0.000375  -0.000216  -0.000074   0.000024
   41  O  3  X   -0.000049  -0.001660   0.001792  -0.000259   0.000050
   42  O  3  Y    0.000000   0.000000   0.000000   0.000000   0.000000
   43  O  3  Z   -0.000007  -0.001190   0.000469   0.000034   0.000029
   44  O  3 XX   -0.000008   0.000109  -0.000204  -0.000218  -0.000015
   45  O  3 YY    0.000006  -0.000120   0.000140   0.000158   0.000013
   46  O  3 ZZ    0.000001   0.000011   0.000065   0.000059   0.000002
   47  O  3 XY    0.000000   0.000000   0.000000   0.000000   0.000000
   48  O  3 XZ   -0.000010   0.000176  -0.000130  -0.000224  -0.000022
   49  O  3 YZ    0.000000   0.000000   0.000000   0.000000   0.000000

                      6          7          8          9         10
                   -5.8617    -5.8617    -0.8845    -0.8647    -0.6829
                     B2         A1         A1         B1         A1  
    1  S  1  S    0.000000   0.001809   0.032636   0.000000   0.080374
    2  S  1  S    0.000000  -0.007043  -0.098571   0.000000  -0.232883
    3  S  1  S    0.000000  -0.000333   0.189393   0.000000   0.494130
    4  S  1  S    0.000000   0.000075   0.174885   0.000000   0.479118
    5  S  1  X    0.000000   0.000000   0.000000   0.046961   0.000000
    6  S  1  Y    0.996953   0.000000   0.000000   0.000000   0.000000
    7  S  1  Z    0.000000   0.996938  -0.021040   0.000000   0.004907
    8  S  1  X    0.000000   0.000000   0.000000  -0.096881   0.000000
    9  S  1  Y    0.008751   0.000000   0.000000   0.000000   0.000000
   10  S  1  Z    0.000000   0.008723   0.044063   0.000000  -0.007732
   11  S  1  X    0.000000   0.000000   0.000000  -0.033000   0.000000
   12  S  1  Y   -0.000159   0.000000   0.000000   0.000000   0.000000
   13  S  1  Z    0.000000  -0.000148   0.014029   0.000000  -0.014568
   14  S  1 XX    0.000000  -0.000183   0.021172   0.000000  -0.004881
   15  S  1 YY    0.000000  -0.000163  -0.014594   0.000000   0.003897
   16  S  1 ZZ    0.000000   0.000346  -0.006578   0.000000   0.000985
   17  S  1 XY    0.000000   0.000000   0.000000   0.000000   0.000000
   18  S  1 XZ    0.000000   0.000000   0.000000  -0.020943   0.000000
   19  S  1 YZ    0.000295   0.000000   0.000000   0.000000   0.000000
   20  O  2  S    0.000000  -0.000003  -0.144144  -0.158078   0.076074
   21  O  2  S    0.000000  -0.000031   0.292488   0.322116  -0.160673
   22  O  2  S    0.000000   0.000021   0.369141   0.410602  -0.227369
   23  O  2  X    0.000000  -0.000028   0.044565   0.036404   0.063193
   24  O  2  Y    0.000006   0.000000   0.000000   0.000000   0.000000
   25  O  2  Z    0.000000   0.000024  -0.020451  -0.018219  -0.028153
   26  O  2  X    0.000000   0.000019   0.024654   0.023337   0.029913
   27  O  2  Y   -0.000038   0.000000   0.000000   0.000000   0.000000
   28  O  2  Z    0.000000  -0.000063  -0.012855  -0.011197  -0.011080
   29  O  2 XX    0.000000  -0.000012   0.006376   0.005768   0.003300
   30  O  2 YY    0.000000  -0.000005  -0.002220  -0.001584  -0.003381
   31  O  2 ZZ    0.000000   0.000016  -0.004155  -0.004184   0.000080
   32  O  2 XY   -0.000026   0.000000   0.000000   0.000000   0.000000
   33  O  2 XZ    0.000000  -0.000026  -0.004990  -0.004454  -0.003289
   34  O  2 YZ    0.000011   0.000000   0.000000   0.000000   0.000000
   35  O  3  S    0.000000  -0.000003  -0.144144   0.158078   0.076074
   36  O  3  S    0.000000  -0.000031   0.292488  -0.322116  -0.160673
   37  O  3  S    0.000000   0.000021   0.369141  -0.410602  -0.227369
   38  O  3  X    0.000000   0.000028  -0.044565   0.036404  -0.063193
   39  O  3  Y    0.000006   0.000000   0.000000   0.000000   0.000000
   40  O  3  Z    0.000000   0.000024  -0.020451   0.018219  -0.028153
   41  O  3  X    0.000000  -0.000019  -0.024654   0.023337  -0.029913
   42  O  3  Y   -0.000038   0.000000   0.000000   0.000000   0.000000
   43  O  3  Z    0.000000  -0.000063  -0.012855   0.011197  -0.011080
   44  O  3 XX    0.000000  -0.000012   0.006376  -0.005768   0.003300
   45  O  3 YY    0.000000  -0.000005  -0.002220   0.001584  -0.003381
   46  O  3 ZZ    0.000000   0.000016  -0.004155   0.004184   0.000080
   47  O  3 XY    0.000026   0.000000   0.000000   0.000000   0.000000
   48  O  3 XZ    0.000000   0.000026   0.004990  -0.004454   0.003289
   49  O  3 YZ    0.000011   0.000000   0.000000   0.000000   0.000000

                     11         12         13         14         15
                   -0.4132    -0.3727    -0.3603    -0.3031    -0.2914
                     B1         A1         B2         A2         B1  
    1  S  1  S    0.000000  -0.010870   0.000000   0.000000   0.000000
    2  S  1  S    0.000000   0.038938   0.000000   0.000000   0.000000
    3  S  1  S    0.000000  -0.059795   0.000000   0.000000   0.000000
    4  S  1  S    0.000000  -0.142037   0.000000   0.000000   0.000000
    5  S  1  X   -0.189151   0.000000   0.000000   0.000000  -0.022984
    6  S  1  Y    0.000000   0.000000  -0.218117   0.000000   0.000000
    7  S  1  Z    0.000000  -0.214799   0.000000   0.000000   0.000000
    8  S  1  X    0.445901   0.000000   0.000000   0.000000   0.049640
    9  S  1  Y    0.000000   0.000000   0.516035   0.000000   0.000000
   10  S  1  Z    0.000000   0.507165   0.000000   0.000000   0.000000
   11  S  1  X    0.195556   0.000000   0.000000   0.000000   0.098989
   12  S  1  Y    0.000000   0.000000   0.363559   0.000000   0.000000
   13  S  1  Z    0.000000   0.323262   0.000000   0.000000   0.000000
   14  S  1 XX    0.000000   0.010898   0.000000   0.000000   0.000000
   15  S  1 YY    0.000000  -0.018495   0.000000   0.000000   0.000000
   16  S  1 ZZ    0.000000   0.007597   0.000000   0.000000   0.000000
   17  S  1 XY    0.000000   0.000000   0.000000  -0.050090   0.000000
   18  S  1 XZ    0.027279   0.000000   0.000000   0.000000  -0.046668
   19  S  1 YZ    0.000000   0.000000   0.015376   0.000000   0.000000
   20  O  2  S   -0.039627   0.016515   0.000000   0.000000  -0.003266
   21  O  2  S    0.089153  -0.035721   0.000000   0.000000   0.001303
   22  O  2  S    0.142430  -0.066920   0.000000   0.000000   0.036062
   23  O  2  X   -0.300067   0.282645   0.000000   0.000000   0.269204
   24  O  2  Y    0.000000   0.000000   0.272955   0.480565   0.000000
   25  O  2  Z    0.160932   0.058756   0.000000   0.000000   0.393790
   26  O  2  X   -0.191070   0.181764   0.000000   0.000000   0.198830
   27  O  2  Y    0.000000   0.000000   0.174385   0.335140   0.000000
   28  O  2  Z    0.103722   0.036422   0.000000   0.000000   0.266982
   29  O  2 XX   -0.008422   0.010124   0.000000   0.000000   0.006777
   30  O  2 YY    0.007279  -0.003996   0.000000   0.000000  -0.000514
   31  O  2 ZZ    0.001142  -0.006128   0.000000   0.000000  -0.006263
   32  O  2 XY    0.000000   0.000000   0.008690   0.007627   0.000000
   33  O  2 XZ    0.010323  -0.000483   0.000000   0.000000   0.003986
   34  O  2 YZ    0.000000   0.000000  -0.004159  -0.004004   0.000000
   35  O  3  S    0.039627   0.016515   0.000000   0.000000   0.003266
   36  O  3  S   -0.089153  -0.035721   0.000000   0.000000  -0.001303
   37  O  3  S   -0.142430  -0.066920   0.000000   0.000000  -0.036062
   38  O  3  X   -0.300067  -0.282645   0.000000   0.000000   0.269204
   39  O  3  Y    0.000000   0.000000   0.272955  -0.480565   0.000000
   40  O  3  Z   -0.160932   0.058756   0.000000   0.000000  -0.393790
   41  O  3  X   -0.191070  -0.181764   0.000000   0.000000   0.198830
   42  O  3  Y    0.000000   0.000000   0.174385  -0.335140   0.000000
   43  O  3  Z   -0.103722   0.036422   0.000000   0.000000  -0.266982
   44  O  3 XX    0.008422   0.010124   0.000000   0.000000  -0.006777
   45  O  3 YY   -0.007279  -0.003996   0.000000   0.000000   0.000514
   46  O  3 ZZ   -0.001142  -0.006128   0.000000   0.000000   0.006263
   47  O  3 XY    0.000000   0.000000  -0.008690   0.007627   0.000000
   48  O  3 XZ    0.010323   0.000483   0.000000   0.000000   0.003986
   49  O  3 YZ    0.000000   0.000000  -0.004159   0.004004   0.000000

                     16         17         18         19         20
                   -0.2871    -0.2590    -0.2151    -0.1371     0.3229
                     A1         B2         A1         B1         B1  
    1  S  1  S    0.014325   0.000000   0.019653   0.000000   0.000000
    2  S  1  S   -0.049224   0.000000  -0.048791   0.000000   0.000000
    3  S  1  S    0.083138   0.000000   0.140554   0.000000   0.000000
    4  S  1  S    0.190364   0.000000   0.184057   0.000000   0.000000
    5  S  1  X    0.000000   0.000000   0.000000  -0.233224   0.240538
    6  S  1  Y    0.000000  -0.186530   0.000000   0.000000   0.000000
    7  S  1  Z    0.018014   0.000000  -0.193416   0.000000   0.000000
    8  S  1  X    0.000000   0.000000   0.000000   0.589342  -0.963674
    9  S  1  Y    0.000000   0.460061   0.000000   0.000000   0.000000
   10  S  1  Z   -0.047728   0.000000   0.481748   0.000000   0.000000
   11  S  1  X    0.000000   0.000000   0.000000   0.574703   1.434782
   12  S  1  Y    0.000000   0.312914   0.000000   0.000000   0.000000
   13  S  1  Z    0.027008   0.000000   0.385136   0.000000   0.000000
   14  S  1 XX   -0.073296   0.000000  -0.049986   0.000000   0.000000
   15  S  1 YY    0.029483   0.000000   0.046031   0.000000   0.000000
   16  S  1 ZZ    0.043813   0.000000   0.003955   0.000000   0.000000
   17  S  1 XY    0.000000   0.000000   0.000000   0.000000   0.000000
   18  S  1 XZ    0.000000   0.000000   0.000000  -0.083134  -0.324838
   19  S  1 YZ    0.000000  -0.018184   0.000000   0.000000   0.000000
   20  O  2  S   -0.001298   0.000000   0.015461  -0.032500  -0.020622
   21  O  2  S    0.008711   0.000000  -0.031664   0.063717  -0.017403
   22  O  2  S   -0.017890   0.000000  -0.092929   0.216282   0.417717
   23  O  2  X   -0.095323   0.000000  -0.398071   0.273714  -0.212345
   24  O  2  Y    0.000000  -0.408409   0.000000   0.000000   0.000000
   25  O  2  Z    0.467808   0.000000  -0.081409  -0.254065  -0.040894
   26  O  2  X   -0.075329   0.000000  -0.296300   0.244649   0.277614
   27  O  2  Y    0.000000  -0.286756   0.000000   0.000000   0.000000
   28  O  2  Z    0.330970   0.000000  -0.053192  -0.200344  -0.121968
   29  O  2 XX    0.000508   0.000000   0.001178   0.000080   0.041799
   30  O  2 YY    0.003127   0.000000   0.000286   0.001971  -0.022194
   31  O  2 ZZ   -0.003634   0.000000  -0.001464  -0.002051  -0.019605
   32  O  2 XY    0.000000  -0.000742   0.000000   0.000000   0.000000
   33  O  2 XZ    0.008219   0.000000   0.002396   0.004227  -0.022321
   34  O  2 YZ    0.000000   0.000575   0.000000   0.000000   0.000000
   35  O  3  S   -0.001298   0.000000   0.015461   0.032500   0.020622
   36  O  3  S    0.008711   0.000000  -0.031664  -0.063717   0.017403
   37  O  3  S   -0.017890   0.000000  -0.092929  -0.216282  -0.417717
   38  O  3  X    0.095323   0.000000   0.398071   0.273714  -0.212345
   39  O  3  Y    0.000000  -0.408409   0.000000   0.000000   0.000000
   40  O  3  Z    0.467808   0.000000  -0.081409   0.254065   0.040894
   41  O  3  X    0.075329   0.000000   0.296300   0.244649   0.277614
   42  O  3  Y    0.000000  -0.286756   0.000000   0.000000   0.000000
   43  O  3  Z    0.330970   0.000000  -0.053192   0.200344   0.121968
   44  O  3 XX    0.000508   0.000000   0.001178  -0.000080  -0.041799
   45  O  3 YY    0.003127   0.000000   0.000286  -0.001971   0.022194
   46  O  3 ZZ   -0.003634   0.000000  -0.001464   0.002051   0.019605
   47  O  3 XY    0.000000   0.000742   0.000000   0.000000   0.000000
   48  O  3 XZ   -0.008219   0.000000  -0.002396   0.004227  -0.022321
   49  O  3 YZ    0.000000   0.000575   0.000000   0.000000   0.000000

                     21         22         23         24         25
                    0.3611     0.3679     0.4039     0.4614     0.4887
                     A1         B2         A1         A2         A1  
    1  S  1  S    0.006091   0.000000  -0.101009   0.000000   0.015148
    2  S  1  S   -0.018465   0.000000  -0.358224   0.000000   0.057735
    3  S  1  S    0.042024   0.000000  -1.553814   0.000000   0.238521
    4  S  1  S    0.099228   0.000000   1.787060   0.000000  -0.286472
    5  S  1  X    0.000000   0.000000   0.000000   0.000000   0.000000
    6  S  1  Y    0.000000   0.299241   0.000000   0.000000   0.000000
    7  S  1  Z    0.286212   0.000000  -0.031528   0.000000   0.007464
    8  S  1  X    0.000000   0.000000   0.000000   0.000000   0.000000
    9  S  1  Y    0.000000  -1.149709   0.000000   0.000000   0.000000
   10  S  1  Z   -1.106239   0.000000   0.112258   0.000000  -0.017241
   11  S  1  X    0.000000   0.000000   0.000000   0.000000   0.000000
   12  S  1  Y    0.000000   1.193362   0.000000   0.000000   0.000000
   13  S  1  Z    1.231744   0.000000  -0.023678   0.000000  -0.056954
   14  S  1 XX   -0.123944   0.000000  -0.467583   0.000000  -0.210671
   15  S  1 YY    0.142524   0.000000   0.271163   0.000000  -0.693584
   16  S  1 ZZ   -0.018580   0.000000   0.196420   0.000000   0.904255
   17  S  1 XY    0.000000   0.000000   0.000000   0.874532   0.000000
   18  S  1 XZ    0.000000   0.000000   0.000000   0.000000   0.000000
   19  S  1 YZ    0.000000  -0.063803   0.000000   0.000000   0.000000
   20  O  2  S    0.007660   0.000000   0.011721   0.000000  -0.005405
   21  O  2  S    0.011327   0.000000  -0.017074   0.000000   0.025627
   22  O  2  S   -0.174507   0.000000  -0.145277   0.000000   0.020787
   23  O  2  X    0.027351   0.000000   0.026357   0.000000  -0.070564
   24  O  2  Y    0.000000  -0.115907   0.000000   0.296070   0.000000
   25  O  2  Z   -0.155581   0.000000  -0.121637   0.000000  -0.166365
   26  O  2  X   -0.136398   0.000000  -0.126937   0.000000   0.095654
   27  O  2  Y    0.000000  -0.042030   0.000000  -0.224680   0.000000
   28  O  2  Z    0.027159   0.000000   0.131171   0.000000   0.116771
   29  O  2 XX   -0.012686   0.000000  -0.018158   0.000000   0.017985
   30  O  2 YY    0.011944   0.000000   0.019687   0.000000  -0.006486
   31  O  2 ZZ    0.000743   0.000000  -0.001529   0.000000  -0.011499
   32  O  2 XY    0.000000   0.001960   0.000000  -0.034466   0.000000
   33  O  2 XZ    0.018568   0.000000   0.034281   0.000000   0.016206
   34  O  2 YZ    0.000000  -0.001272   0.000000   0.019042   0.000000
   35  O  3  S    0.007660   0.000000   0.011721   0.000000  -0.005405
   36  O  3  S    0.011327   0.000000  -0.017074   0.000000   0.025627
   37  O  3  S   -0.174507   0.000000  -0.145277   0.000000   0.020787
   38  O  3  X   -0.027351   0.000000  -0.026357   0.000000   0.070564
   39  O  3  Y    0.000000  -0.115907   0.000000  -0.296070   0.000000
   40  O  3  Z   -0.155581   0.000000  -0.121637   0.000000  -0.166365
   41  O  3  X    0.136398   0.000000   0.126937   0.000000  -0.095654
   42  O  3  Y    0.000000  -0.042030   0.000000   0.224680   0.000000
   43  O  3  Z    0.027159   0.000000   0.131171   0.000000   0.116771
   44  O  3 XX   -0.012686   0.000000  -0.018158   0.000000   0.017985
   45  O  3 YY    0.011944   0.000000   0.019687   0.000000  -0.006486
   46  O  3 ZZ    0.000743   0.000000  -0.001529   0.000000  -0.011499
   47  O  3 XY    0.000000  -0.001960   0.000000  -0.034466   0.000000
   48  O  3 XZ   -0.018568   0.000000  -0.034281   0.000000  -0.016206
   49  O  3 YZ    0.000000  -0.001272   0.000000  -0.019042   0.000000

                     26         27         28         29         30
                    0.4923     0.5834     0.6029     0.7760     0.7867
                     B2         B1         A1         B1         A2  
    1  S  1  S    0.000000   0.000000  -0.064571   0.000000   0.000000
    2  S  1  S    0.000000   0.000000  -0.252189   0.000000   0.000000
    3  S  1  S    0.000000   0.000000  -1.026836   0.000000   0.000000
    4  S  1  S    0.000000   0.000000   1.229925   0.000000   0.000000
    5  S  1  X    0.000000   0.112423   0.000000   0.006413   0.000000
    6  S  1  Y    0.011493   0.000000   0.000000   0.000000   0.000000
    7  S  1  Z    0.000000   0.000000   0.056756   0.000000   0.000000
    8  S  1  X    0.000000  -0.495824   0.000000  -0.007873   0.000000
    9  S  1  Y   -0.036645   0.000000   0.000000   0.000000   0.000000
   10  S  1  Z    0.000000   0.000000  -0.250851   0.000000   0.000000
   11  S  1  X    0.000000   0.901517   0.000000  -0.185204   0.000000
   12  S  1  Y   -0.009006   0.000000   0.000000   0.000000   0.000000
   13  S  1  Z    0.000000   0.000000   0.422442   0.000000   0.000000
   14  S  1 XX    0.000000   0.000000   0.728110   0.000000   0.000000
   15  S  1 YY    0.000000   0.000000  -0.606627   0.000000   0.000000
   16  S  1 ZZ    0.000000   0.000000  -0.121484   0.000000   0.000000
   17  S  1 XY    0.000000   0.000000   0.000000   0.000000   0.499286
   18  S  1 XZ    0.000000   0.845696   0.000000   0.323423   0.000000
   19  S  1 YZ    0.963968   0.000000   0.000000   0.000000   0.000000
   20  O  2  S    0.000000  -0.042901   0.042425   0.001709   0.000000
   21  O  2  S    0.000000   0.247049  -0.271770  -0.014753   0.000000
   22  O  2  S    0.000000   0.116172  -0.016513  -0.026987   0.000000
   23  O  2  X    0.000000   0.140174  -0.116331  -0.168070   0.000000
   24  O  2  Y   -0.160410   0.000000   0.000000   0.000000  -0.570687
   25  O  2  Z    0.000000   0.112522   0.137132  -0.587337   0.000000
   26  O  2  X    0.000000   0.117459  -0.165571   0.210717   0.000000
   27  O  2  Y    0.130426   0.000000   0.000000   0.000000   0.707410
   28  O  2  Z    0.000000  -0.253081  -0.034181   0.709759   0.000000
   29  O  2 XX    0.000000  -0.029509   0.008797  -0.023987   0.000000
   30  O  2 YY    0.000000   0.007780  -0.015824   0.008301   0.000000
   31  O  2 ZZ    0.000000   0.021729   0.007027   0.015686   0.000000
   32  O  2 XY    0.021056   0.000000   0.000000   0.000000  -0.027184
   33  O  2 XZ    0.000000  -0.001815  -0.024825   0.001362   0.000000
   34  O  2 YZ   -0.002192   0.000000   0.000000   0.000000   0.014707
   35  O  3  S    0.000000   0.042901   0.042425  -0.001709   0.000000
   36  O  3  S    0.000000  -0.247049  -0.271770   0.014753   0.000000
   37  O  3  S    0.000000  -0.116172  -0.016513   0.026987   0.000000
   38  O  3  X    0.000000   0.140174   0.116331  -0.168070   0.000000
   39  O  3  Y   -0.160410   0.000000   0.000000   0.000000   0.570687
   40  O  3  Z    0.000000  -0.112522   0.137132   0.587337   0.000000
   41  O  3  X    0.000000   0.117459   0.165571   0.210717   0.000000
   42  O  3  Y    0.130426   0.000000   0.000000   0.000000  -0.707410
   43  O  3  Z    0.000000   0.253081  -0.034181  -0.709759   0.000000
   44  O  3 XX    0.000000   0.029509   0.008797   0.023987   0.000000
   45  O  3 YY    0.000000  -0.007780  -0.015824  -0.008301   0.000000
   46  O  3 ZZ    0.000000  -0.021729   0.007027  -0.015686   0.000000
   47  O  3 XY   -0.021056   0.000000   0.000000   0.000000  -0.027184
   48  O  3 XZ    0.000000  -0.001815   0.024825   0.001362   0.000000
   49  O  3 YZ   -0.002192   0.000000   0.000000   0.000000  -0.014707

                     31         32         33         34         35
                    0.7998     0.8068     0.8275     0.8298     1.4816
                     B2         A1         B1         A1         A1  
    1  S  1  S    0.000000  -0.007276   0.000000   0.008685   0.028500
    2  S  1  S    0.000000   0.039350   0.000000  -0.019364   0.256448
    3  S  1  S    0.000000  -0.034662   0.000000   0.075746   0.636782
    4  S  1  S    0.000000  -0.330897   0.000000   0.228054  -1.311107
    5  S  1  X    0.000000   0.000000  -0.108908   0.000000   0.000000
    6  S  1  Y   -0.039197   0.000000   0.000000   0.000000   0.000000
    7  S  1  Z    0.000000   0.012424   0.000000  -0.056394   0.004653
    8  S  1  X    0.000000   0.000000   0.473111   0.000000   0.000000
    9  S  1  Y    0.198962   0.000000   0.000000   0.000000   0.000000
   10  S  1  Z    0.000000  -0.031173   0.000000   0.263486   0.019094
   11  S  1  X    0.000000   0.000000  -0.057296   0.000000   0.000000
   12  S  1  Y   -0.478101   0.000000   0.000000   0.000000   0.000000
   13  S  1  Z    0.000000  -0.318752   0.000000  -0.296933  -0.459762
   14  S  1 XX    0.000000   0.073175   0.000000   0.369519  -0.383602
   15  S  1 YY    0.000000   0.136953   0.000000  -0.070701   0.281925
   16  S  1 ZZ    0.000000  -0.210127   0.000000  -0.298818   0.101677
   17  S  1 XY    0.000000   0.000000   0.000000   0.000000   0.000000
   18  S  1 XZ    0.000000   0.000000   0.172413   0.000000   0.000000
   19  S  1 YZ   -0.264811   0.000000   0.000000   0.000000   0.000000
   20  O  2  S    0.000000  -0.021183  -0.019785   0.016837   0.021055
   21  O  2  S    0.000000   0.225844   0.235112  -0.189397  -1.069932
   22  O  2  S    0.000000  -0.110247  -0.186939   0.150568   1.320107
   23  O  2  X    0.000000  -0.576316  -0.561417   0.179528  -0.169276
   24  O  2  Y   -0.609053   0.000000   0.000000   0.000000   0.000000
   25  O  2  Z    0.000000  -0.188541   0.192711  -0.547007   0.025955
   26  O  2  X    0.000000   0.799305   0.763862  -0.278543   0.532585
   27  O  2  Y    0.796743   0.000000   0.000000   0.000000   0.000000
   28  O  2  Z    0.000000   0.226509  -0.264347   0.742154  -0.124218
   29  O  2 XX    0.000000  -0.023238  -0.037647   0.015407  -0.143762
   30  O  2 YY    0.000000   0.008056   0.024118  -0.022144   0.094852
   31  O  2 ZZ    0.000000   0.015182   0.013528   0.006737   0.048910
   32  O  2 XY   -0.020958   0.000000   0.000000   0.000000   0.000000
   33  O  2 XZ    0.000000  -0.005767   0.028925  -0.047071   0.103460
   34  O  2 YZ    0.006670   0.000000   0.000000   0.000000   0.000000
   35  O  3  S    0.000000  -0.021183   0.019785   0.016837   0.021055
   36  O  3  S    0.000000   0.225844  -0.235112  -0.189397  -1.069932
   37  O  3  S    0.000000  -0.110247   0.186939   0.150568   1.320107
   38  O  3  X    0.000000   0.576316  -0.561417  -0.179528   0.169276
   39  O  3  Y   -0.609053   0.000000   0.000000   0.000000   0.000000
   40  O  3  Z    0.000000  -0.188541  -0.192711  -0.547007   0.025955
   41  O  3  X    0.000000  -0.799305   0.763862   0.278543  -0.532585
   42  O  3  Y    0.796743   0.000000   0.000000   0.000000   0.000000
   43  O  3  Z    0.000000   0.226509   0.264347   0.742154  -0.124218
   44  O  3 XX    0.000000  -0.023238   0.037647   0.015407  -0.143762
   45  O  3 YY    0.000000   0.008056  -0.024118  -0.022144   0.094852
   46  O  3 ZZ    0.000000   0.015182  -0.013528   0.006737   0.048910
   47  O  3 XY    0.020958   0.000000   0.000000   0.000000   0.000000
   48  O  3 XZ    0.000000   0.005767   0.028925   0.047071  -0.103460
   49  O  3 YZ    0.006670   0.000000   0.000000   0.000000   0.000000

                     36         37         38         39         40
                    1.5229     2.0829     2.0847     2.0869     2.0899
                     B1         A2         B1         B2         A1  
    1  S  1  S    0.000000   0.000000   0.000000   0.000000  -0.000781
    2  S  1  S    0.000000   0.000000   0.000000   0.000000  -0.008944
    3  S  1  S    0.000000   0.000000   0.000000   0.000000  -0.020039
    4  S  1  S    0.000000   0.000000   0.000000   0.000000   0.044540
    5  S  1  X   -0.007632   0.000000   0.000075   0.000000   0.000000
    6  S  1  Y    0.000000   0.000000   0.000000  -0.002883   0.000000
    7  S  1  Z    0.000000   0.000000   0.000000   0.000000  -0.000314
    8  S  1  X   -0.060747   0.000000   0.014119   0.000000   0.000000
    9  S  1  Y    0.000000   0.000000   0.000000   0.035186   0.000000
   10  S  1  Z    0.000000   0.000000   0.000000   0.000000  -0.003957
   11  S  1  X    1.039865   0.000000  -0.096232   0.000000   0.000000
   12  S  1  Y    0.000000   0.000000   0.000000  -0.117047   0.000000
   13  S  1  Z    0.000000   0.000000   0.000000   0.000000   0.031932
   14  S  1 XX    0.000000   0.000000   0.000000   0.000000   0.005441
   15  S  1 YY    0.000000   0.000000   0.000000   0.000000  -0.027988
   16  S  1 ZZ    0.000000   0.000000   0.000000   0.000000   0.022546
   17  S  1 XY    0.000000   0.099488   0.000000   0.000000   0.000000
   18  S  1 XZ    0.397333   0.000000   0.041479   0.000000   0.000000
   19  S  1 YZ    0.000000   0.000000   0.000000  -0.066605   0.000000
   20  O  2  S    0.018701   0.000000   0.000040   0.000000   0.000544
   21  O  2  S   -1.128973   0.000000   0.042109   0.000000   0.021971
   22  O  2  S    1.492757   0.000000  -0.070890   0.000000  -0.035581
   23  O  2  X   -0.112972   0.000000   0.001974   0.000000   0.007159
   24  O  2  Y    0.000000  -0.013058   0.000000  -0.023790   0.000000
   25  O  2  Z    0.104565   0.000000  -0.014854   0.000000   0.002530
   26  O  2  X    0.434659   0.000000  -0.018197   0.000000  -0.022401
   27  O  2  Y    0.000000   0.017234   0.000000   0.044520   0.000000
   28  O  2  Z   -0.325624   0.000000   0.029052   0.000000  -0.002189
   29  O  2 XX   -0.108932   0.000000   0.410701   0.000000  -0.177325
   30  O  2 YY    0.079287   0.000000  -0.417917   0.000000   0.613521
   31  O  2 ZZ    0.029645   0.000000   0.007216   0.000000  -0.436196
   32  O  2 XY    0.000000   0.682975   0.000000   0.700786   0.000000
   33  O  2 XZ    0.116177   0.000000   0.521103   0.000000  -0.317992
   34  O  2 YZ    0.000000   0.182504   0.000000   0.106093   0.000000
   35  O  3  S   -0.018701   0.000000  -0.000040   0.000000   0.000544
   36  O  3  S    1.128973   0.000000  -0.042109   0.000000   0.021971
   37  O  3  S   -1.492757   0.000000   0.070890   0.000000  -0.035581
   38  O  3  X   -0.112972   0.000000   0.001974   0.000000  -0.007159
   39  O  3  Y    0.000000   0.013058   0.000000  -0.023790   0.000000
   40  O  3  Z   -0.104565   0.000000   0.014854   0.000000   0.002530
   41  O  3  X    0.434659   0.000000  -0.018197   0.000000   0.022401
   42  O  3  Y    0.000000  -0.017234   0.000000   0.044520   0.000000
   43  O  3  Z    0.325624   0.000000  -0.029052   0.000000  -0.002189
   44  O  3 XX    0.108932   0.000000  -0.410701   0.000000  -0.177325
   45  O  3 YY   -0.079287   0.000000   0.417917   0.000000   0.613521
   46  O  3 ZZ   -0.029645   0.000000  -0.007216   0.000000  -0.436196
   47  O  3 XY    0.000000   0.682975   0.000000  -0.700786   0.000000
   48  O  3 XZ    0.116177   0.000000   0.521103   0.000000   0.317992
   49  O  3 YZ    0.000000  -0.182504   0.000000   0.106093   0.000000

                     41         42         43         44         45
                    2.0914     2.0933     2.0943     2.1119     2.2394
                     B2         B1         A2         A1         B1  
    1  S  1  S    0.000000   0.000000   0.000000  -0.002661   0.000000
    2  S  1  S    0.000000   0.000000   0.000000  -0.031411   0.000000
    3  S  1  S    0.000000   0.000000   0.000000  -0.069568   0.000000
    4  S  1  S    0.000000   0.000000   0.000000   0.155096   0.000000
    5  S  1  X    0.000000  -0.006970   0.000000   0.000000  -0.072417
    6  S  1  Y    0.001775   0.000000   0.000000   0.000000   0.000000
    7  S  1  Z    0.000000   0.000000   0.000000   0.000244   0.000000
    8  S  1  X    0.000000   0.007449   0.000000   0.000000   0.210896
    9  S  1  Y   -0.022665   0.000000   0.000000   0.000000   0.000000
   10  S  1  Z    0.000000   0.000000   0.000000  -0.033340   0.000000
   11  S  1  X    0.000000   0.115290   0.000000   0.000000   0.332655
   12  S  1  Y    0.076112   0.000000   0.000000   0.000000   0.000000
   13  S  1  Z    0.000000   0.000000   0.000000   0.178676   0.000000
   14  S  1 XX    0.000000   0.000000   0.000000  -0.046195   0.000000
   15  S  1 YY    0.000000   0.000000   0.000000  -0.040749   0.000000
   16  S  1 ZZ    0.000000   0.000000   0.000000   0.086943   0.000000
   17  S  1 XY    0.000000   0.000000  -0.093743   0.000000   0.000000
   18  S  1 XZ    0.000000  -0.019875   0.000000   0.000000   0.334537
   19  S  1 YZ    0.023427   0.000000   0.000000   0.000000   0.000000
   20  O  2  S    0.000000  -0.000735   0.000000  -0.000305  -0.001318
   21  O  2  S    0.000000  -0.063660   0.000000   0.080908  -0.319805
   22  O  2  S    0.000000   0.105122   0.000000  -0.123301   0.469487
   23  O  2  X    0.000000  -0.009576   0.000000   0.032248  -0.083719
   24  O  2  Y    0.014771   0.000000   0.011949   0.000000   0.000000
   25  O  2  Z    0.000000   0.018165   0.000000   0.022345   0.042153
   26  O  2  X    0.000000   0.038349   0.000000  -0.087148   0.258524
   27  O  2  Y   -0.026740   0.000000  -0.015996   0.000000   0.000000
   28  O  2  Z    0.000000  -0.038481   0.000000  -0.032029  -0.135997
   29  O  2 XX    0.000000  -0.191235   0.000000  -0.492866   0.539033
   30  O  2 YY    0.000000  -0.477222   0.000000  -0.049901  -0.308345
   31  O  2 ZZ    0.000000   0.668457   0.000000   0.542767  -0.230688
   32  O  2 XY   -0.108305   0.000000  -0.182149   0.000000   0.000000
   33  O  2 XZ    0.000000  -0.161542   0.000000  -0.377481  -0.444159
   34  O  2 YZ    0.699581   0.000000   0.683046   0.000000   0.000000
   35  O  3  S    0.000000   0.000735   0.000000  -0.000305   0.001318
   36  O  3  S    0.000000   0.063660   0.000000   0.080908   0.319805
   37  O  3  S    0.000000  -0.105122   0.000000  -0.123301  -0.469487
   38  O  3  X    0.000000  -0.009576   0.000000  -0.032248  -0.083719
   39  O  3  Y    0.014771   0.000000  -0.011949   0.000000   0.000000
   40  O  3  Z    0.000000  -0.018165   0.000000   0.022345  -0.042153
   41  O  3  X    0.000000   0.038349   0.000000   0.087148   0.258524
   42  O  3  Y   -0.026740   0.000000   0.015996   0.000000   0.000000
   43  O  3  Z    0.000000   0.038481   0.000000  -0.032029   0.135997
   44  O  3 XX    0.000000   0.191235   0.000000  -0.492866  -0.539033
   45  O  3 YY    0.000000   0.477222   0.000000  -0.049901   0.308345
   46  O  3 ZZ    0.000000  -0.668457   0.000000   0.542767   0.230688
   47  O  3 XY    0.108305   0.000000  -0.182149   0.000000   0.000000
   48  O  3 XZ    0.000000  -0.161542   0.000000   0.377481  -0.444159
   49  O  3 YZ    0.699581   0.000000  -0.683046   0.000000   0.000000

                     46
                    2.2659
                     A1  
    1  S  1  S   -0.006136
    2  S  1  S   -0.144462
    3  S  1  S   -0.255480
    4  S  1  S    0.697260
    5  S  1  X    0.000000
    6  S  1  Y    0.000000
    7  S  1  Z   -0.035083
    8  S  1  X    0.000000
    9  S  1  Y    0.000000
   10  S  1  Z    0.104090
   11  S  1  X    0.000000
   12  S  1  Y    0.000000
   13  S  1  Z    0.167799
   14  S  1 XX    0.385211
   15  S  1 YY   -0.260196
   16  S  1 ZZ   -0.125015
   17  S  1 XY    0.000000
   18  S  1 XZ    0.000000
   19  S  1 YZ    0.000000
   20  O  2  S    0.001868
   21  O  2  S    0.343115
   22  O  2  S   -0.491290
   23  O  2  X    0.096578
   24  O  2  Y    0.000000
   25  O  2  Z   -0.041751
   26  O  2  X   -0.310692
   27  O  2  Y    0.000000
   28  O  2  Z    0.128175
   29  O  2 XX   -0.468229
   30  O  2 YY    0.342424
   31  O  2 ZZ    0.125806
   32  O  2 XY    0.000000
   33  O  2 XZ    0.504168
   34  O  2 YZ    0.000000
   35  O  3  S    0.001868
   36  O  3  S    0.343115
   37  O  3  S   -0.491290
   38  O  3  X   -0.096578
   39  O  3  Y    0.000000
   40  O  3  Z   -0.041751
   41  O  3  X    0.310692
   42  O  3  Y    0.000000
   43  O  3  Z    0.128175
   44  O  3 XX   -0.468229
   45  O  3 YY    0.342424
   46  O  3 ZZ    0.125806
   47  O  3 XY    0.000000
   48  O  3 XZ   -0.504168
   49  O  3 YZ    0.000000
 ...... END OF RHF CALCULATION ......
 STEP CPU TIME =     3.64 TOTAL CPU TIME =        3.8 (    0.1 MIN)
 TOTAL WALL CLOCK TIME=        3.8 SECONDS, CPU UTILIZATION IS  99.74%

     ---------------------------------------------------------------------
     PROPERTIES FOR THE PBE      DFT FUNCTIONAL (RHF  TYPE) DENSITY MATRIX
     ---------------------------------------------------------------------

          -----------------
          ENERGY COMPONENTS
          -----------------

         WAVEFUNCTION NORMALIZATION =       1.0000000000

                ONE ELECTRON ENERGY =    -908.7800207325
                TWO ELECTRON ENERGY =     831.7032129574
           NUCLEAR REPULSION ENERGY =      77.0768077752
                                      ------------------
                       TOTAL ENERGY =       0.0000000000

 ELECTRON-ELECTRON POTENTIAL ENERGY =     831.7032129574
  NUCLEUS-ELECTRON POTENTIAL ENERGY =   -1455.2695828056
   NUCLEUS-NUCLEUS POTENTIAL ENERGY =      77.0768077752
                                      ------------------
             TOTAL POTENTIAL ENERGY =    -546.4895620730
               TOTAL KINETIC ENERGY =     546.4895620730
                 VIRIAL RATIO (V/T) =       1.0000000000

          ---------------------------------------
          MULLIKEN AND LOWDIN POPULATION ANALYSES
          ---------------------------------------

     ATOMIC MULLIKEN POPULATION IN EACH MOLECULAR ORBITAL

                      1          2          3          4          5

                  2.000000   2.000000   2.000000   2.000000   2.000000

    1             1.999998   0.000515   0.000277   1.999899   2.000014
    2             0.000001   0.999743   0.999861   0.000051  -0.000007
    3             0.000001   0.999743   0.999861   0.000051  -0.000007

                      6          7          8          9         10

                  2.000000   2.000000   2.000000   2.000000   2.000000

    1             2.000001   1.999998   0.360781   0.089094   1.550307
    2            -0.000001   0.000001   0.819609   0.955453   0.224846
    3            -0.000001   0.000001   0.819609   0.955453   0.224846

                     11         12         13         14         15

                  2.000000   2.000000   2.000000   2.000000   2.000000

    1             0.757216   1.196112   1.279745   0.014117   0.045636
    2             0.621392   0.401944   0.360128   0.992942   0.977182
    3             0.621392   0.401944   0.360128   0.992942   0.977182

                     16

                  2.000000

    1             0.079605
    2             0.960197
    3             0.960197

               ----- POPULATIONS IN EACH AO -----
                             MULLIKEN      LOWDIN
              1  S  1  S      2.00021     1.99612
              2  S  1  S      2.01099     1.97596
              3  S  1  S      1.02698     0.66481
              4  S  1  S      0.91823     0.57835
              5  S  1  X      1.99601     1.95212
              6  S  1  Y      1.99643     1.95773
              7  S  1  Z      1.99644     1.95737
              8  S  1  X      0.60597     0.57043
              9  S  1  Y      0.71968     0.70533
             10  S  1  Z      0.71616     0.69630
             11  S  1  X      0.26716     0.38361
             12  S  1  Y      0.56247     0.60629
             13  S  1  Z      0.47660     0.54170
             14  S  1 XX      0.01195     0.23755
             15  S  1 YY      0.02942     0.26055
             16  S  1 ZZ      0.01412     0.25534
             17  S  1 XY      0.02333     0.01595
             18  S  1 XZ      0.00117     0.03015
             19  S  1 YZ      0.00000     0.00112
             20  O  2  S      1.99799     1.98179
             21  O  2  S      0.86754     0.67844
             22  O  2  S      1.11911     0.63690
             23  O  2  X      0.71578     0.67951
             24  O  2  Y      0.81937     0.79183
             25  O  2  Z      1.08467     1.05306
             26  O  2  X      0.48690     0.55027
             27  O  2  Y      0.53274     0.56378
             28  O  2  Z      0.68444     0.72541
             29  O  2 XX      0.00061     0.21620
             30  O  2 YY      0.00168     0.21650
             31  O  2 ZZ      0.00078     0.20969
             32  O  2 XY      0.00155     0.00096
             33  O  2 XZ      0.00018     0.00206
             34  O  2 YZ      0.00000     0.00022
             35  O  3  S      1.99799     1.98179
             36  O  3  S      0.86754     0.67844
             37  O  3  S      1.11911     0.63690
             38  O  3  X      0.71578     0.67951
             39  O  3  Y      0.81937     0.79183
             40  O  3  Z      1.08467     1.05306
             41  O  3  X      0.48690     0.55027
             42  O  3  Y      0.53274     0.56378
             43  O  3  Z      0.68444     0.72541
             44  O  3 XX      0.00061     0.21620
             45  O  3 YY      0.00168     0.21650
             46  O  3 ZZ      0.00078     0.20969
             47  O  3 XY      0.00155     0.00096
             48  O  3 XZ      0.00018     0.00206
             49  O  3 YZ      0.00000     0.00022

          ----- MULLIKEN ATOMIC OVERLAP POPULATIONS -----
          (OFF-DIAGONAL ELEMENTS NEED TO BE MULTIPLIED BY 2)

             1           2           3

    1   14.9912844
    2    0.1910162   8.1252097
    3    0.1910162  -0.0028843   8.1252097

          TOTAL MULLIKEN AND LOWDIN ATOMIC POPULATIONS
       ATOM         MULL.POP.    CHARGE          LOW.POP.     CHARGE
    1 S            15.373317    0.626683        15.386792    0.613208
    2 O             8.313342   -0.313342         8.306604   -0.306604
    3 O             8.313342   -0.313342         8.306604   -0.306604

          MULLIKEN SPHERICAL HARMONIC POPULATIONS
       ATOM           S       P       D      F      G      H      I    TOTAL
    1 S             5.96    9.34    0.08   0.00   0.00   0.00   0.00   15.37
    2 O             3.98    4.32    0.00   0.00   0.00   0.00   0.00    8.31
    3 O             3.98    4.32    0.00   0.00   0.00   0.00   0.00    8.31

          -------------------------------
          BOND ORDER AND VALENCE ANALYSIS     BOND ORDER THRESHOLD=0.050
          -------------------------------

                   BOND                       BOND                       BOND
  ATOM PAIR DIST  ORDER      ATOM PAIR DIST  ORDER      ATOM PAIR DIST  ORDER
    1   2  2.000  1.504        1   3  2.000  1.504        2   3  3.625  0.690

                       TOTAL       BONDED        FREE
      ATOM            VALENCE     VALENCE     VALENCE
    1 S                 3.009       3.009       0.000
    2 O                 2.195       2.195       0.000
    3 O                 2.195       2.195       0.000

          ---------------------
          ELECTROSTATIC MOMENTS
          ---------------------

 POINT   1           X           Y           Z (BOHR)    CHARGE
                 0.000000    0.000000    0.000000        0.00 (A.U.)
         DX          DY          DZ         /D/  (DEBYE)
     0.000000    0.000000   -1.856981    1.856981
 ...... END OF PROPERTY EVALUATION ......
 STEP CPU TIME =     0.00 TOTAL CPU TIME =        3.8 (    0.1 MIN)
 TOTAL WALL CLOCK TIME=        3.8 SECONDS, CPU UTILIZATION IS  99.48%
               580000  WORDS OF DYNAMIC MEMORY USED
 EXECUTION OF GAMESS TERMINATED NORMALLY Thu Feb 26 00:22:54 2015
 DDI: 263624 bytes (0.3 MB / 0 MWords) used by master data server.

 ----------------------------------------
 CPU timing information for all processes
 ========================================
 0: 3.799 + 0.28 = 3.828
 ----------------------------------------
 ddikick.x: exited gracefully.
----- accounting info -----
Files used on the master node dftfe.crc.nd.edu were:
-rw-r--r-- 1 pmehta1 campus   37475 Feb 26 00:22 /tmp/gamess.dat
-rw-r--r-- 1 pmehta1 campus     142 Feb 26 00:22 /tmp/gamess.F05
-rw-r--r-- 1 pmehta1 campus 1800240 Feb 26 00:22 /tmp/gamess.F08
-rw-r--r-- 1 pmehta1 campus 1220440 Feb 26 00:22 /tmp/gamess.F10
Thu Feb 26 00:22:57 EST 2015
0.245u 0.174s 0:07.25 5.6%	0+0k 0+104io 0pf+0w
