----- GAMESS execution script 'rungms' -----
This job is running on host dftfe.crc.nd.edu
under operating system Linux at Thu Feb 26 00:12:38 EST 2015
Available scratch disk space (Kbyte units) at beginning of the job is
Filesystem     1K-blocks     Used Available Use% Mounted on
/dev/sda2      147771864 22810080 117455352  17% /
GAMESS temporary binary files will be written to /tmp
GAMESS supplementary output files will be written to /tmp
Copying input file gamess.inp to your run's scratch directory...

 Distributed Data Interface kickoff program.
 Initiating 1 compute processes on 1 nodes to run the following command:
 /opt/crc/gamess/2012R1/gamess/gamess.00.x gamess 

          ******************************************************
          *         GAMESS VERSION =  1 MAY 2012 (R1)          *
          *             FROM IOWA STATE UNIVERSITY             *
          * M.W.SCHMIDT, K.K.BALDRIDGE, J.A.BOATZ, S.T.ELBERT, *
          *   M.S.GORDON, J.H.JENSEN, S.KOSEKI, N.MATSUNAGA,   *
          *          K.A.NGUYEN, S.J.SU, T.L.WINDUS,           *
          *       TOGETHER WITH M.DUPUIS, J.A.MONTGOMERY       *
          *         J.COMPUT.CHEM.  14, 1347-1363(1993)        *
          **************** 64 BIT LINUX VERSION ****************

  SINCE 1993, STUDENTS AND POSTDOCS WORKING AT IOWA STATE UNIVERSITY
  AND ALSO IN THEIR VARIOUS JOBS AFTER LEAVING ISU HAVE MADE IMPORTANT
  CONTRIBUTIONS TO THE CODE:
     IVANA ADAMOVIC, CHRISTINE AIKENS, YURI ALEXEEV, POOJA ARORA,
     ANDREY ASADCHEV, ROB BELL, PRADIPTA BANDYOPADHYAY, JONATHAN BENTZ,
     BRETT BODE, GALINA CHABAN, WEI CHEN, CHEOL HO CHOI, PAUL DAY,
     ALBERT DEFUSCO, TIM DUDLEY, DMITRI FEDOROV, GRAHAM FLETCHER,
     MARK FREITAG, KURT GLAESEMANN, DAN KEMP, GRANT MERRILL,
     NORIYUKI MINEZAWA, JONATHAN MULLIN, TAKESHI NAGATA,
     SEAN NEDD, HEATHER NETZLOFF, BOSILJKA NJEGIC, RYAN OLSON, MIKE PAK,
     JIM SHOEMAKER, LYUDMILA SLIPCHENKO, SAROM SOK, JIE SONG,
     TETSUYA TAKETSUGU, SIMON WEBB, SOOHAENG YOO, FEDERICO ZAHARIEV

  ADDITIONAL CODE HAS BEEN PROVIDED BY COLLABORATORS IN OTHER GROUPS:
     IOWA STATE UNIVERSITY:
          JOE IVANIC, LAIMUTIS BYTAUTAS, KLAUS RUEDENBERG
     UNIVERSITY OF TOKYO: KIMIHIKO HIRAO, TAKAHITO NAKAJIMA,
          TAKAO TSUNEDA, MUNEAKI KAMIYA, SUSUMU YANAGISAWA,
          KIYOSHI YAGI, MAHITO CHIBA, SEIKEN TOKURA, NAOAKI KAWAKAMI
     UNIVERSITY OF AARHUS: FRANK JENSEN
     UNIVERSITY OF IOWA: VISVALDAS KAIRYS, HUI LI
     NATIONAL INST. OF STANDARDS AND TECHNOLOGY: WALT STEVENS, DAVID GARMER
     UNIVERSITY OF PISA: BENEDETTA MENNUCCI, JACOPO TOMASI
     UNIVERSITY OF MEMPHIS: HENRY KURTZ, PRAKASHAN KORAMBATH
     UNIVERSITY OF ALBERTA: TOBY ZENG, MARIUSZ KLOBUKOWSKI
     UNIVERSITY OF NEW ENGLAND: MARK SPACKMAN
     MIE UNIVERSITY: HIROAKI UMEDA
     MICHIGAN STATE UNIVERSITY:
          KAROL KOWALSKI, MARTA WLOCH, JEFFREY GOUR, JESSE LUTZ, PIOTR PIECUCH
     UNIVERSITY OF SILESIA: MONIKA MUSIAL, STANISLAW KUCHARSKI
     FACULTES UNIVERSITAIRES NOTRE-DAME DE LA PAIX:
          OLIVIER QUINET, BENOIT CHAMPAGNE
     UNIVERSITY OF CALIFORNIA - SANTA BARBARA: BERNARD KIRTMAN
     INSTITUTE FOR MOLECULAR SCIENCE:
          KAZUYA ISHIMURA, MICHIO KATOUDA, AND SHIGERU NAGASE
     UNIVERSITY OF NOTRE DAME: DAN CHIPMAN
     KYUSHU UNIVERSITY:
          HARUYUKI NAKANO,
          FENG LONG GU, JACEK KORCHOWIEC, MARCIN MAKOWSKI, AND YURIKO AOKI,
          HIROTOSHI MORI AND EISAKU MIYOSHI
     PENNSYLVANIA STATE UNIVERSITY:
          TZVETELIN IORDANOV, CHET SWALINA, JONATHAN SKONE,
          SHARON HAMMES-SCHIFFER
     WASEDA UNIVERSITY:
          MASATO KOBAYASHI, TOMOKO AKAMA, TSUGUKI TOUMA,
          TAKESHI YOSHIKAWA, YASUHIRO IKABATA, HIROMI NAKAI
     UNIVERSITY OF NEBRASKA:
          PEIFENG SU, DEJUN SI, NANDUN THELLAMUREGE, YALI WANG, HUI LI
     UNIVERSITY OF ZURICH:
          ROBERTO PEVERATI, KIM BALDRIDGE
     N. COPERNICUS UNIVERSITY AND JACKSON STATE UNIVERSITY:
          MARIA BARYSZ

 EXECUTION OF GAMESS BEGUN Thu Feb 26 00:12:38 2015

            ECHO OF THE FIRST FEW INPUT CARDS -
 INPUT CARD> $BASIS GBASIS=PC1 $END                                                         
 INPUT CARD> $CONTRL COORD=ZMT ISPHER=1 RUNTYP=ENERGY DFTTYP=PBE $END                       
 INPUT CARD>                                                                                
 INPUT CARD> $DATA                                                                          
 INPUT CARD>Title                                                                           
 INPUT CARD>Cnv 2                                                                           
 INPUT CARD>                                                                                
 INPUT CARD>S                                                                               
 INPUT CARD>O 1 1.20                                                                        
 INPUT CARD>O 1 1.20 2 100.0                                                                
 INPUT CARD> $END                                                                           
    1000000 WORDS OF MEMORY AVAILABLE

     BASIS OPTIONS
     -------------
     GBASIS=PC1          IGAUSS=       0      POLAR=NONE    
     NDFUNC=       0     NFFUNC=       0     DIFFSP=       F
     NPFUNC=       0      DIFFS=       F     BASNAM=        


     RUN TITLE
     ---------
 Title                                                                           

 THE POINT GROUP OF THE MOLECULE IS CNV     
 THE ORDER OF THE PRINCIPAL AXIS IS     2

 YOUR FULLY SUBSTITUTED Z-MATRIX IS
 S   
 O      1   1.2000000
 O      1   1.2000000  2  100.0000

 THE MOMENTS OF INERTIA ARE (AMU-ANGSTROM**2)
 IXX=     9.514   IYY=    27.032   IZZ=    36.546

 ATOM      ATOMIC                      COORDINATES (BOHR)
           CHARGE         X                   Y                   Z
 S          16.0     0.0000000000        0.0000000000       -0.7290177232
 O           8.0    -1.7371369103        0.0000000000        0.7286132175
 O           8.0     1.7371369103        0.0000000000        0.7286132175

          INTERNUCLEAR DISTANCES (ANGS.)
          ------------------------------

                1 S          2 O          3 O     

   1 S       0.0000000    1.2000000 *  1.2000000 *
   2 O       1.2000000 *  0.0000000    1.8385067 *
   3 O       1.2000000 *  1.8385067 *  0.0000000  

  * ... LESS THAN  3.000


     ATOMIC BASIS SET
     ----------------
 THE CONTRACTED PRIMITIVE FUNCTIONS HAVE BEEN UNNORMALIZED
 THE CONTRACTED BASIS FUNCTIONS ARE NOW NORMALIZED TO UNITY

  SHELL TYPE  PRIMITIVE        EXPONENT          CONTRACTION COEFFICIENT(S)

 S         

      1   S       1         55510.0000000    0.000587229760
      1   S       2          8326.7000000    0.004532413947
      1   S       3          1895.6000000    0.023265261648
      1   S       4           536.7700000    0.089696133027
      1   S       5           174.6700000    0.254098332277
      1   S       6            62.5780000    0.438665087637
      1   S       7            23.5730000    0.314547135094
      1   S       8             5.8908000    0.032727897102

      2   S       9          8326.7000000   -0.000019755715
      2   S      10          1895.6000000   -0.000043822381
      2   S      11           536.7700000   -0.001730264906
      2   S      12           174.6700000   -0.009381263460
      2   S      13            62.5780000   -0.064050766303
      2   S      14            23.5730000   -0.082478179196
      2   S      15             5.8908000    0.478342956889
      2   S      16             2.1852000    0.626896670208

      3   S      17          1895.6000000    0.000016227260
      3   S      18           536.7700000    0.000191135619
      3   S      19           174.6700000    0.001952069674
      3   S      20            62.5780000    0.010578701087
      3   S      21            23.5730000    0.022164934551
      3   S      22             5.8908000   -0.184968323118
      3   S      23             2.1852000   -0.480920750976
      3   S      24             0.4528200    1.243822243872

      4   S      25             0.1620200    1.000000000000

      5   P      26           395.4500000    0.004642761329
      5   P      27            92.8340000    0.036023396489
      5   P      28            29.2660000    0.149058869978
      5   P      29            10.5950000    0.360033266263
      5   P      30             4.0272000    0.455756476221
      5   P      31             1.5484000    0.206167664178

      6   P      32            92.8340000    0.000169901442
      6   P      33            29.2660000   -0.002541839934
      6   P      34            10.5950000   -0.007867614595
      6   P      35             4.0272000   -0.037231009184
      6   P      36             1.5484000    0.161417246830
      6   P      37             0.4613400    0.902230419976

      7   P      38             0.1313100    1.000000000000

      8   D      39             0.5500000    1.000000000000

 O         

     15   S      40          2306.7000000    0.005424388755
     15   S      41           347.1500000    0.040474749465
     15   S      42            78.8900000    0.180219634554
     15   S      43            21.8760000    0.462370311787
     15   S      44             6.6646000    0.454888396263

     16   S      45           347.1500000   -0.000655003786
     16   S      46            78.8900000   -0.005362052952
     16   S      47            21.8760000   -0.074902158894
     16   S      48             6.6646000   -0.181442579655
     16   S      49             1.0669000    1.102006874042

     17   S      50             0.3070000    1.000000000000

     18   P      51            17.0220000    0.068979967443
     18   P      52             3.6838000    0.351985516325
     18   P      53             0.9923400    0.724036547822

     19   P      54             0.2448700    1.000000000000

     20   D      55             1.0000000    1.000000000000

 TOTAL NUMBER OF BASIS SET SHELLS             =   20
 NUMBER OF CARTESIAN GAUSSIAN BASIS FUNCTIONS =   49
 NOTE: THIS RUN WILL RESTRICT THE MO VARIATION SPACE TO SPHERICAL HARMONICS.
 THE NUMBER OF ORBITALS KEPT IN THE VARIATIONAL SPACE WILL BE PRINTED LATER.
 NUMBER OF ELECTRONS                          =   32
 CHARGE OF MOLECULE                           =    0
 SPIN MULTIPLICITY                            =    1
 NUMBER OF OCCUPIED ORBITALS (ALPHA)          =   16
 NUMBER OF OCCUPIED ORBITALS (BETA )          =   16
 TOTAL NUMBER OF ATOMS                        =    3
 THE NUCLEAR REPULSION ENERGY IS      131.3122621980

     LEBEDEV GRID-BASED DFT OPTIONS
     ------------------------------
     DFTTYP=PBE     
     NRAD  =      96     NLEB  =     302
     NRAD0 =      24     NLEB0 =     110
     SWOFF =    5.00E-03 (PURE SCF -> DFT)
     SWITCH=    3.00E-04 (COARSE -> TIGHT GRID)
     THRESH=    0.00E+00 GTHRE=    1.00E+00

 GRIMME'S EMPIRICAL DISPERSION CORRECTION= F

     $CONTRL OPTIONS
     ---------------
 SCFTYP=RHF          RUNTYP=ENERGY       EXETYP=RUN     
 MPLEVL=       0     CITYP =NONE         CCTYP =NONE         VBTYP =NONE    
 DFTTYP=PBE          TDDFT =NONE    
 MULT  =       1     ICHARG=       0     NZVAR =       0     COORD =ZMT     
 PP    =NONE         RELWFN=NONE         LOCAL =NONE         NUMGRD=       F
 ISPHER=       1     NOSYM =       0     MAXIT =      30     UNITS =ANGS    
 PLTORB=       F     MOLPLT=       F     AIMPAC=       F     FRIEND=        
 NPRINT=       7     IREST =       0     GEOM  =INPUT   
 NORMF =       0     NORMP =       0     ITOL  =      20     ICUT  =       9
 INTTYP=BEST         GRDTYP=BEST         QMTTOL= 1.0E-06

     $SYSTEM OPTIONS
     ---------------
  REPLICATED MEMORY=     1000000 WORDS (ON EVERY NODE).
 DISTRIBUTED MEMDDI=           0 MILLION WORDS IN AGGREGATE,
 MEMDDI DISTRIBUTED OVER   1 PROCESSORS IS           0 WORDS/PROCESSOR.
 TOTAL MEMORY REQUESTED ON EACH PROCESSOR=     1000000 WORDS.
 TIMLIM=      525600.00 MINUTES, OR     365.0 DAYS.
 PARALL= F  BALTYP=  DLB     KDIAG=    0  COREFL= F
 MXSEQ2=     300 MXSEQ3=     150

          ----------------
          PROPERTIES INPUT
          ----------------

     MOMENTS            FIELD           POTENTIAL          DENSITY
 IEMOM =       1   IEFLD =       0   IEPOT =       0   IEDEN =       0
 WHERE =COMASS     WHERE =NUCLEI     WHERE =NUCLEI     WHERE =NUCLEI  
 OUTPUT=BOTH       OUTPUT=BOTH       OUTPUT=BOTH       OUTPUT=BOTH    
 IEMINT=       0   IEFINT=       0                     IEDINT=       0
                                                       MORB  =       0
          EXTRAPOLATION IN EFFECT
          DIIS IN EFFECT
 ORBITAL PRINTING OPTION: NPREO=     1    49     2     1

     -------------------------------
     INTEGRAL TRANSFORMATION OPTIONS
     -------------------------------
     NWORD  =            0
     CUTOFF = 1.0E-09     MPTRAN =       0
     DIRTRF =       F     AOINTS =DUP     

          ----------------------
          INTEGRAL INPUT OPTIONS
          ----------------------
 NOPK  =       1 NORDER=       0 SCHWRZ=       F

   --- ENCODED Z MATRIX ---
 COORD  TYPE   I   J   K   L   M   N
    1      1    3   1
    2      1    2   1
    3      2    2   1   3

 THE DETERMINANT OF THE G MATRIX IS 10**(    -4)

 THE DETERMINANT OF THE G MATRIX IS 10**(    -4)
 * * * WARNING * * *
 YOUR B MATRIX HAS A SMALL DETERMINANT.
 THIS SUGGESTS YOU MAY HAVE BADLY CHOSEN COORDINATES.

     ------------------------------------------
     THE POINT GROUP IS CNV, NAXIS= 2, ORDER= 4
     ------------------------------------------

 -- VARIATIONAL SPACE WILL BE RESTRICTED TO PURE SPHERICAL HARMONICS ONLY --
 AFTER EXCLUDING CONTAMINANT COMBINATIONS FROM THE CARTESIAN GAUSSIAN BASIS
 SET, THE NUMBER OF SPHERICAL HARMONICS KEPT IN THE VARIATION SPACE IS   46

     DIMENSIONS OF THE SYMMETRY SUBSPACES ARE
 A1  =   19     A2  =    5     B1  =   14     B2  =    8

 ..... DONE SETTING UP THE RUN .....
 STEP CPU TIME =     0.20 TOTAL CPU TIME =        0.2 (    0.0 MIN)
 TOTAL WALL CLOCK TIME=        0.2 SECONDS, CPU UTILIZATION IS  95.24%

          ********************
          1 ELECTRON INTEGRALS
          ********************
 ...... END OF ONE-ELECTRON INTEGRALS ......
 STEP CPU TIME =     0.00 TOTAL CPU TIME =        0.2 (    0.0 MIN)
 TOTAL WALL CLOCK TIME=        0.2 SECONDS, CPU UTILIZATION IS  95.24%

          -------------
          GUESS OPTIONS
          -------------
          GUESS =HUCKEL            NORB  =       0          NORDER=       0
          MIX   =       F          PRTMO =       F          PUNMO =       F
          TOLZ  = 1.0E-08          TOLE  = 1.0E-05
          SYMDEN=       F          PURIFY=       F

 INITIAL GUESS ORBITALS GENERATED BY HUCKEL   ROUTINE.
 HUCKEL GUESS REQUIRES     21583 WORDS.

 STATISTICS FOR GENERATION OF SYMMETRY ORBITAL -Q- MATRIX
 NUMBER OF CARTESIAN ATOMIC ORBITALS=         49
 NUMBER OF SPHERICAL CONTAMINANTS DROPPED=     3
 NUMBER OF LINEARLY DEPENDENT MOS DROPPED=     0
 TOTAL NUMBER OF MOS IN VARIATION SPACE=      46

 SYMMETRIES FOR INITIAL GUESS ORBITALS FOLLOW.   BOTH SET(S).
    16 ORBITALS ARE OCCUPIED (    7 CORE ORBITALS).
     8=?A1      9=?B1     10=?A1     11=B2      12=A1      13=B1      14=A2  
    15=B1      16=A1      17=B2      18=?B1     19=?A1     20=A1      21=A1  
    22=A1      23=A1      24=A1      25=A1      26=A1  
 ...... END OF INITIAL ORBITAL SELECTION ......
 STEP CPU TIME =     0.01 TOTAL CPU TIME =        0.2 (    0.0 MIN)
 TOTAL WALL CLOCK TIME=        0.2 SECONDS, CPU UTILIZATION IS 100.00%

                    ----------------------
                    AO INTEGRAL TECHNOLOGY
                    ----------------------
     S,P,L SHELL ROTATED AXIS INTEGRALS, REPROGRAMMED BY
        KAZUYA ISHIMURA (IMS) AND JOSE SIERRA (SYNSTAR).
     S,P,D,L SHELL ROTATED AXIS INTEGRALS PROGRAMMED BY
        KAZUYA ISHIMURA (INSTITUTE FOR MOLECULAR SCIENCE).
     S,P,D,F,G SHELL TO TOTAL QUARTET ANGULAR MOMENTUM SUM 5,
        ERIC PROGRAM BY GRAHAM FLETCHER (ELORET AND NASA ADVANCED
        SUPERCOMPUTING DIVISION, AMES RESEARCH CENTER).
     S,P,D,F,G,L SHELL GENERAL RYS QUADRATURE PROGRAMMED BY
        MICHEL DUPUIS (PACIFIC NORTHWEST NATIONAL LABORATORY).

          --------------------
          2 ELECTRON INTEGRALS
          --------------------

 THE -PK- OPTION IS OFF, THE INTEGRALS ARE NOT IN SUPERMATRIX FORM.
 STORING   15000 INTEGRALS/RECORD ON DISK, USING 12 BYTES/INTEGRAL.
 TWO ELECTRON INTEGRAL EVALUATION REQUIRES   90606 WORDS OF MEMORY.
 II,JST,KST,LST =  1  1  1  1 NREC =         1 INTLOC =    1
 II,JST,KST,LST =  2  1  1  1 NREC =         1 INTLOC =    2
 II,JST,KST,LST =  3  1  1  1 NREC =         1 INTLOC =    7
 II,JST,KST,LST =  4  1  1  1 NREC =         1 INTLOC =   22
 II,JST,KST,LST =  5  1  1  1 NREC =         1 INTLOC =   56
 II,JST,KST,LST =  6  1  1  1 NREC =         1 INTLOC =  125
 II,JST,KST,LST =  7  1  1  1 NREC =         1 INTLOC =  329
 II,JST,KST,LST =  8  1  1  1 NREC =         1 INTLOC =  776
 II,JST,KST,LST =  9  1  1  1 NREC =         1 INTLOC = 2864
 II,JST,KST,LST = 10  1  1  1 NREC =         1 INTLOC = 2864
 II,JST,KST,LST = 11  1  1  1 NREC =         1 INTLOC = 2864
 II,JST,KST,LST = 12  1  1  1 NREC =         1 INTLOC = 2864
 II,JST,KST,LST = 13  1  1  1 NREC =         1 INTLOC = 2864
 II,JST,KST,LST = 14  1  1  1 NREC =         1 INTLOC = 2864
 II,JST,KST,LST = 15  1  1  1 NREC =         1 INTLOC = 2864
 II,JST,KST,LST = 16  1  1  1 NREC =         1 INTLOC = 5173
 II,JST,KST,LST = 17  1  1  1 NREC =         1 INTLOC = 8543
 II,JST,KST,LST = 18  1  1  1 NREC =         1 INTLOC =13025
 II,JST,KST,LST = 19  1  1  1 NREC =         3 INTLOC = 1692
 II,JST,KST,LST = 20  1  1  1 NREC =         5 INTLOC = 3255
 TOTAL NUMBER OF NONZERO TWO-ELECTRON INTEGRALS =              183904
         13 INTEGRAL RECORDS WERE STORED ON DISK FILE  8.
  ...... END OF TWO-ELECTRON INTEGRALS .....
 STEP CPU TIME =     0.17 TOTAL CPU TIME =        0.4 (    0.0 MIN)
 TOTAL WALL CLOCK TIME=        0.4 SECONDS, CPU UTILIZATION IS 100.00%

          --------------------------
               R-PBE SCF CALCULATION
          --------------------------

     NUCLEAR ENERGY =       131.3122621980
     MAXIT =   30     NPUNCH=    2
     EXTRAP=T  DAMP=F  SHIFT=F  RSTRCT=F  DIIS=T  DEM=F  SOSCF=F
         DENSITY MATRIX CONVERGENCE THRESHOLD=  1.00E-05
     COARSE -> FINE DFT GRID SWITCH THRESHOLD=  3.00E-04 (SWITCH IN $DFT)
                   HF -> DFT SWITCH THRESHOLD=  5.00E-03 (SWOFF IN $DFT)
     MEMORY REQUIRED FOR RHF ITERS=    183108 WORDS.

 DFT CODE IS SWITCHING FROM THE FINE GRID NRAD= 96,  NLEB=  302
                      TO THE COARSE GRID NRAD0= 24, NLEB0=  110

     EXCHANGE FUNCTIONAL   =PBE       
     CORRELATION FUNCTIONAL=PBE       
     DFT THRESHOLD         =.460E-07
     GRID CHANGE THRESHOLD =.300E-03
 FOR AN EULER-MACLAURIN QUADRATURE USING  96 RADIAL POINTS:
 SMALLEST GAUSSIAN PRIMITIVE EXPONENT=        0.1313100000 OF TYPE -P-
 ON ATOM NUMBER   1 HAS RADIAL NORMALIZATION=  1.000000
  LARGEST GAUSSIAN PRIMITIVE EXPONENT=    55510.0000000000 OF TYPE -S-
 ON ATOM NUMBER   1 HAS RADIAL NORMALIZATION=  0.999999
 DFT IS SWITCHED OFF, PERFORMING PURE SCF UNTIL SWOFF THRESHOLD IS REACHED.

 ITER EX DEM     TOTAL ENERGY        E CHANGE  DENSITY CHANGE    DIIS ERROR
   1  0  0     -545.5861010767  -545.5861010767   0.294350075   1.088463494
          * * *   INITIATING DIIS PROCEDURE   * * *
   2  1  0     -546.7272834979    -1.1411824212   0.419857201   0.171265369
   3  2  0     -546.7985150555    -0.0712315575   0.051443755   0.080380466
   4  3  0     -546.8143019516    -0.0157868961   0.028583592   0.017184094
   5  4  0     -546.8152699336    -0.0009679820   0.015903480   0.007864972
   6  5  0     -546.8154030674    -0.0001331339   0.002427931   0.001797636
 CONVERGED TO SWOFF, SO DFT CALCULATION IS NOW SWITCHED ON.
          * * *   INITIATING DIIS PROCEDURE   * * *
   7  6  0     -547.8589364297    -1.0435333623   0.140378634   0.089204446
   8  7  0     -547.8728544601    -0.0139180304   0.107341317   0.051147140
   9  8  0     -547.8720082777     0.0008461824   0.036229286   0.060855858
  10  9  0     -547.8805154516    -0.0085071739   0.012574430   0.006531307
  11 10  0     -547.8806245640    -0.0001091124   0.000246121   0.000568489
 DFT CODE IS SWITCHING BACK TO THE FINE GRID
          * * *   INITIATING DIIS PROCEDURE   * * *
  12 11  0     -547.8818826380    -0.0012580740   0.009155062   0.011633396
  13 12  0     -547.8819750700    -0.0000924320   0.005037040   0.004868868
  14 13  0     -547.8819842680    -0.0000091980   0.002199977   0.004195238
  15 14  0     -547.8820182734    -0.0000340055   0.000111756   0.000150955
  16 15  0     -547.8820183652    -0.0000000918   0.000014802   0.000032142
  17 16  0     -547.8820183672    -0.0000000019   0.000006612   0.000003615
  18 17  0     -547.8820183672     0.0000000000   0.000002508   0.000000827

          -----------------
          DENSITY CONVERGED
          -----------------
     TIME TO FORM FOCK OPERATORS=       3.9 SECONDS (       0.2 SEC/ITER)
     TIME TO SOLVE SCF EQUATIONS=       0.0 SECONDS (       0.0 SEC/ITER)

 FINAL R-PBE ENERGY IS     -547.8820183672 AFTER  18 ITERATIONS
 DFT EXCHANGE + CORRELATION ENERGY =       -43.1015757811
 TOTAL ELECTRON NUMBER             =        32.0000012570

          ------------
          EIGENVECTORS
          ------------

                      1          2          3          4          5
                  -88.1508   -18.7311   -18.7311    -7.8121    -5.8311
                     A1         B1         A1         A1         B1  
    1  S  1  S    1.002980   0.000000  -0.000105  -0.273766   0.000000
    2  S  1  S   -0.010145   0.000000   0.000184   1.039286   0.000000
    3  S  1  S    0.002073   0.000000  -0.001419   0.043855   0.000000
    4  S  1  S   -0.000497   0.000000   0.011528  -0.009347   0.000000
    5  S  1  X    0.000000  -0.000359   0.000000   0.000000   0.994774
    6  S  1  Y    0.000000   0.000000   0.000000   0.000000   0.000000
    7  S  1  Z    0.000028   0.000000   0.000157   0.013188   0.000000
    8  S  1  X    0.000000   0.001148   0.000000   0.000000   0.013198
    9  S  1  Y    0.000000   0.000000   0.000000   0.000000   0.000000
   10  S  1  Z    0.000334   0.000000  -0.000298   0.003559   0.000000
   11  S  1  X    0.000000  -0.003511   0.000000   0.000000  -0.000112
   12  S  1  Y    0.000000   0.000000   0.000000   0.000000   0.000000
   13  S  1  Z    0.000018   0.000000   0.004840  -0.000140   0.000000
   14  S  1 XX    0.000119   0.000000  -0.000208   0.001102   0.000000
   15  S  1 YY   -0.000137   0.000000   0.000613  -0.001177   0.000000
   16  S  1 ZZ    0.000018   0.000000  -0.000406   0.000076   0.000000
   17  S  1 XY    0.000000   0.000000   0.000000   0.000000   0.000000
   18  S  1 XZ    0.000000   0.002521   0.000000   0.000000   0.002923
   19  S  1 YZ    0.000000   0.000000   0.000000   0.000000   0.000000
   20  O  2  S    0.000007   0.703200   0.703143  -0.001140   0.001955
   21  O  2  S   -0.000044   0.027294   0.026758   0.000302  -0.001919
   22  O  2  S   -0.000301  -0.012132  -0.014251  -0.001724   0.001248
   23  O  2  X   -0.000116   0.001672   0.001442   0.000665  -0.002149
   24  O  2  Y    0.000000   0.000000   0.000000   0.000000   0.000000
   25  O  2  Z    0.000093  -0.001571  -0.001069  -0.000628   0.002326
   26  O  2  X   -0.000207  -0.002375  -0.002219  -0.001814   0.000591
   27  O  2  Y    0.000000   0.000000   0.000000   0.000000   0.000000
   28  O  2  Z    0.000207   0.001618   0.001716   0.001809  -0.000584
   29  O  2 XX   -0.000035  -0.000369   0.000529   0.000423  -0.000391
   30  O  2 YY    0.000051   0.000207  -0.000364  -0.000601   0.000963
   31  O  2 ZZ   -0.000016   0.000163  -0.000165   0.000178  -0.000572
   32  O  2 XY    0.000000   0.000000   0.000000   0.000000   0.000000
   33  O  2 XZ    0.000076  -0.000453  -0.000008  -0.001154   0.001510
   34  O  2 YZ    0.000000   0.000000   0.000000   0.000000   0.000000
   35  O  3  S    0.000007  -0.703200   0.703143  -0.001140  -0.001955
   36  O  3  S   -0.000044  -0.027294   0.026758   0.000302   0.001919
   37  O  3  S   -0.000301   0.012132  -0.014251  -0.001724  -0.001248
   38  O  3  X    0.000116   0.001672  -0.001442  -0.000665  -0.002149
   39  O  3  Y    0.000000   0.000000   0.000000   0.000000   0.000000
   40  O  3  Z    0.000093   0.001571  -0.001069  -0.000628  -0.002326
   41  O  3  X    0.000207  -0.002375   0.002219   0.001814   0.000591
   42  O  3  Y    0.000000   0.000000   0.000000   0.000000   0.000000
   43  O  3  Z    0.000207  -0.001618   0.001716   0.001809   0.000584
   44  O  3 XX   -0.000035   0.000369   0.000529   0.000423   0.000391
   45  O  3 YY    0.000051  -0.000207  -0.000364  -0.000601  -0.000963
   46  O  3 ZZ   -0.000016  -0.000163  -0.000165   0.000178   0.000572
   47  O  3 XY    0.000000   0.000000   0.000000   0.000000   0.000000
   48  O  3 XZ   -0.000076  -0.000453   0.000008   0.001154   0.001510
   49  O  3 YZ    0.000000   0.000000   0.000000   0.000000   0.000000

                      6          7          8          9         10
                   -5.8273    -5.8230    -1.2115    -1.0181    -0.5551
                     B2         A1         A1         B1         A1  
    1  S  1  S    0.000000   0.004212   0.058997   0.000000   0.052473
    2  S  1  S    0.000000  -0.015807  -0.180892   0.000000  -0.150667
    3  S  1  S    0.000000   0.001208   0.312656   0.000000   0.326676
    4  S  1  S    0.000000   0.001213   0.082790   0.000000   0.350420
    5  S  1  X    0.000000   0.000000   0.000000  -0.190784   0.000000
    6  S  1  Y    0.996155   0.000000   0.000000   0.000000   0.000000
    7  S  1  Z    0.000000   0.995246  -0.118018   0.000000   0.146321
    8  S  1  X    0.000000   0.000000   0.000000   0.328719   0.000000
    9  S  1  Y    0.011067   0.000000   0.000000   0.000000   0.000000
   10  S  1  Z    0.000000   0.012055   0.183182   0.000000  -0.317607
   11  S  1  X    0.000000   0.000000   0.000000   0.023652   0.000000
   12  S  1  Y   -0.000656   0.000000   0.000000   0.000000   0.000000
   13  S  1  Z    0.000000  -0.000063  -0.007226   0.000000  -0.128133
   14  S  1 XX    0.000000  -0.000605   0.024661   0.000000   0.063300
   15  S  1 YY    0.000000  -0.001268  -0.043593   0.000000   0.025406
   16  S  1 ZZ    0.000000   0.001873   0.018932   0.000000  -0.088706
   17  S  1 XY    0.000000   0.000000   0.000000   0.000000   0.000000
   18  S  1 XZ    0.000000   0.000000   0.000000   0.118374   0.000000
   19  S  1 YZ    0.001188   0.000000   0.000000   0.000000   0.000000
   20  O  2  S    0.000000  -0.001569  -0.124063   0.149553   0.055552
   21  O  2  S    0.000000   0.002013   0.232422  -0.276976  -0.106568
   22  O  2  S    0.000000  -0.000932   0.204702  -0.274506  -0.189674
   23  O  2  X    0.000000   0.002390   0.130947  -0.090273  -0.064482
   24  O  2  Y    0.000559   0.000000   0.000000   0.000000   0.000000
   25  O  2  Z    0.000000  -0.001615  -0.089234   0.118501  -0.230856
   26  O  2  X    0.000000  -0.000730   0.024892  -0.015438  -0.033980
   27  O  2  Y   -0.000290   0.000000   0.000000   0.000000   0.000000
   28  O  2  Z    0.000000   0.000045  -0.018085   0.020881  -0.105932
   29  O  2 XX    0.000000   0.000587   0.007500  -0.004554  -0.012039
   30  O  2 YY    0.000000  -0.000630  -0.009127   0.009799  -0.002135
   31  O  2 ZZ    0.000000   0.000043   0.001626  -0.005246   0.014173
   32  O  2 XY    0.000308   0.000000   0.000000   0.000000   0.000000
   33  O  2 XZ    0.000000  -0.001206  -0.018589   0.018693  -0.009560
   34  O  2 YZ   -0.000349   0.000000   0.000000   0.000000   0.000000
   35  O  3  S    0.000000  -0.001569  -0.124063  -0.149553   0.055552
   36  O  3  S    0.000000   0.002013   0.232422   0.276976  -0.106568
   37  O  3  S    0.000000  -0.000932   0.204702   0.274506  -0.189674
   38  O  3  X    0.000000  -0.002390  -0.130947  -0.090273   0.064482
   39  O  3  Y    0.000559   0.000000   0.000000   0.000000   0.000000
   40  O  3  Z    0.000000  -0.001615  -0.089234  -0.118501  -0.230856
   41  O  3  X    0.000000   0.000730  -0.024892  -0.015438   0.033980
   42  O  3  Y   -0.000290   0.000000   0.000000   0.000000   0.000000
   43  O  3  Z    0.000000   0.000045  -0.018085  -0.020881  -0.105932
   44  O  3 XX    0.000000   0.000587   0.007500   0.004554  -0.012039
   45  O  3 YY    0.000000  -0.000630  -0.009127  -0.009799  -0.002135
   46  O  3 ZZ    0.000000   0.000043   0.001626   0.005246   0.014173
   47  O  3 XY   -0.000308   0.000000   0.000000   0.000000   0.000000
   48  O  3 XZ    0.000000   0.001206   0.018589   0.018693   0.009560
   49  O  3 YZ   -0.000349   0.000000   0.000000   0.000000   0.000000

                     11         12         13         14         15
                   -0.5331    -0.4692    -0.4194    -0.3450    -0.2985
                     B2         A1         B1         A2         A1  
    1  S  1  S    0.000000   0.025805   0.000000   0.000000   0.019372
    2  S  1  S    0.000000  -0.049497   0.000000   0.000000  -0.096199
    3  S  1  S    0.000000   0.190502   0.000000   0.000000   0.081051
    4  S  1  S    0.000000  -0.067292   0.000000   0.000000   0.682823
    5  S  1  X    0.000000   0.000000  -0.160571   0.000000   0.000000
    6  S  1  Y   -0.207821   0.000000   0.000000   0.000000   0.000000
    7  S  1  Z    0.000000  -0.104924   0.000000   0.000000   0.158131
    8  S  1  X    0.000000   0.000000   0.348485   0.000000   0.000000
    9  S  1  Y    0.462939   0.000000   0.000000   0.000000   0.000000
   10  S  1  Z    0.000000   0.225378   0.000000   0.000000  -0.342604
   11  S  1  X    0.000000   0.000000   0.024772   0.000000   0.000000
   12  S  1  Y    0.155164   0.000000   0.000000   0.000000   0.000000
   13  S  1  Z    0.000000  -0.013848   0.000000   0.000000  -0.156619
   14  S  1 XX    0.000000  -0.087747   0.000000   0.000000  -0.161095
   15  S  1 YY    0.000000   0.003912   0.000000   0.000000   0.063030
   16  S  1 ZZ    0.000000   0.083835   0.000000   0.000000   0.098065
   17  S  1 XY    0.000000   0.000000   0.000000  -0.171794   0.000000
   18  S  1 XZ    0.000000   0.000000   0.030306   0.000000   0.000000
   19  S  1 YZ    0.089557   0.000000   0.000000   0.000000   0.000000
   20  O  2  S    0.000000   0.081396  -0.071201   0.000000   0.011346
   21  O  2  S    0.000000  -0.168550   0.148017   0.000000  -0.023420
   22  O  2  S    0.000000  -0.292860   0.302745   0.000000  -0.075769
   23  O  2  X    0.000000   0.364523  -0.195351   0.000000   0.006133
   24  O  2  Y    0.324262   0.000000   0.000000   0.466475   0.000000
   25  O  2  Z    0.000000  -0.011048   0.339459   0.000000   0.371365
   26  O  2  X    0.000000   0.197183  -0.101826   0.000000   0.015009
   27  O  2  Y    0.161794   0.000000   0.000000   0.316398   0.000000
   28  O  2  Z    0.000000  -0.005821   0.182397   0.000000   0.273890
   29  O  2 XX    0.000000   0.020903   0.001004   0.000000   0.003006
   30  O  2 YY    0.000000  -0.010585   0.013924   0.000000   0.008204
   31  O  2 ZZ    0.000000  -0.010318  -0.014928   0.000000  -0.011209
   32  O  2 XY    0.022642   0.000000   0.000000   0.020862   0.000000
   33  O  2 XZ    0.000000  -0.011530   0.019760   0.000000   0.020186
   34  O  2 YZ   -0.017903   0.000000   0.000000  -0.021310   0.000000
   35  O  3  S    0.000000   0.081396   0.071201   0.000000   0.011346
   36  O  3  S    0.000000  -0.168550  -0.148017   0.000000  -0.023420
   37  O  3  S    0.000000  -0.292860  -0.302745   0.000000  -0.075769
   38  O  3  X    0.000000  -0.364523  -0.195351   0.000000  -0.006133
   39  O  3  Y    0.324262   0.000000   0.000000  -0.466475   0.000000
   40  O  3  Z    0.000000  -0.011048  -0.339459   0.000000   0.371365
   41  O  3  X    0.000000  -0.197183  -0.101826   0.000000  -0.015009
   42  O  3  Y    0.161794   0.000000   0.000000  -0.316398   0.000000
   43  O  3  Z    0.000000  -0.005821  -0.182397   0.000000   0.273890
   44  O  3 XX    0.000000   0.020903  -0.001004   0.000000   0.003006
   45  O  3 YY    0.000000  -0.010585  -0.013924   0.000000   0.008204
   46  O  3 ZZ    0.000000  -0.010318   0.014928   0.000000  -0.011209
   47  O  3 XY   -0.022642   0.000000   0.000000   0.020862   0.000000
   48  O  3 XZ    0.000000   0.011530   0.019760   0.000000  -0.020186
   49  O  3 YZ   -0.017903   0.000000   0.000000   0.021310   0.000000

                     16         17         18         19         20
                   -0.2678    -0.0917     0.0787     0.1215     0.3318
                     B1         B2         B1         A1         B2  
    1  S  1  S    0.000000   0.000000   0.000000   0.007166   0.000000
    2  S  1  S    0.000000   0.000000   0.000000  -0.142253   0.000000
    3  S  1  S    0.000000   0.000000   0.000000  -0.094289   0.000000
    4  S  1  S    0.000000   0.000000   0.000000   1.704850   0.000000
    5  S  1  X   -0.002413   0.000000  -0.103030   0.000000   0.000000
    6  S  1  Y    0.000000  -0.195876   0.000000   0.000000   0.297612
    7  S  1  Z    0.000000   0.000000   0.000000  -0.037158   0.000000
    8  S  1  X    0.018871   0.000000   0.274928   0.000000   0.000000
    9  S  1  Y    0.000000   0.512644   0.000000   0.000000  -1.123628
   10  S  1  Z    0.000000   0.000000   0.000000   0.143509   0.000000
   11  S  1  X    0.170220   0.000000   1.311576   0.000000   0.000000
   12  S  1  Y    0.000000   0.725413   0.000000   0.000000   1.170521
   13  S  1  Z    0.000000   0.000000   0.000000   1.477053   0.000000
   14  S  1 XX    0.000000   0.000000   0.000000  -0.099243   0.000000
   15  S  1 YY    0.000000   0.000000   0.000000   0.286550   0.000000
   16  S  1 ZZ    0.000000   0.000000   0.000000  -0.187307   0.000000
   17  S  1 XY    0.000000   0.000000   0.000000   0.000000   0.000000
   18  S  1 XZ   -0.152478   0.000000  -0.237993   0.000000   0.000000
   19  S  1 YZ    0.000000  -0.162983   0.000000   0.000000  -0.097790
   20  O  2  S   -0.017926   0.000000  -0.048183   0.067952   0.000000
   21  O  2  S    0.033412   0.000000   0.051782  -0.061850   0.000000
   22  O  2  S    0.086672   0.000000   0.585999  -1.040281   0.000000
   23  O  2  X    0.448466   0.000000  -0.108239  -0.102293   0.000000
   24  O  2  Y    0.000000  -0.328698   0.000000   0.000000   0.030687
   25  O  2  Z    0.203752   0.000000  -0.261767   0.013245   0.000000
   26  O  2  X    0.289003   0.000000  -0.176908  -0.324952   0.000000
   27  O  2  Y    0.000000  -0.384996   0.000000   0.000000  -0.017179
   28  O  2  Z    0.164074   0.000000  -0.316742   0.003586   0.000000
   29  O  2 XX    0.029236   0.000000  -0.002540  -0.017753   0.000000
   30  O  2 YY   -0.003785   0.000000  -0.002520   0.024757   0.000000
   31  O  2 ZZ   -0.025451   0.000000   0.005060  -0.007004   0.000000
   32  O  2 XY    0.000000  -0.007845   0.000000   0.000000  -0.033076
   33  O  2 XZ   -0.013996   0.000000  -0.009246   0.003703   0.000000
   34  O  2 YZ    0.000000  -0.002027   0.000000   0.000000   0.022390
   35  O  3  S    0.017926   0.000000   0.048183   0.067952   0.000000
   36  O  3  S   -0.033412   0.000000  -0.051782  -0.061850   0.000000
   37  O  3  S   -0.086672   0.000000  -0.585999  -1.040281   0.000000
   38  O  3  X    0.448466   0.000000  -0.108239   0.102293   0.000000
   39  O  3  Y    0.000000  -0.328698   0.000000   0.000000   0.030687
   40  O  3  Z   -0.203752   0.000000   0.261767   0.013245   0.000000
   41  O  3  X    0.289003   0.000000  -0.176908   0.324952   0.000000
   42  O  3  Y    0.000000  -0.384996   0.000000   0.000000  -0.017179
   43  O  3  Z   -0.164074   0.000000   0.316742   0.003586   0.000000
   44  O  3 XX   -0.029236   0.000000   0.002540  -0.017753   0.000000
   45  O  3 YY    0.003785   0.000000   0.002520   0.024757   0.000000
   46  O  3 ZZ    0.025451   0.000000  -0.005060  -0.007004   0.000000
   47  O  3 XY    0.000000   0.007845   0.000000   0.000000   0.033076
   48  O  3 XZ   -0.013996   0.000000  -0.009246  -0.003703   0.000000
   49  O  3 YZ    0.000000  -0.002027   0.000000   0.000000   0.022390

                     21         22         23         24         25
                    0.3899     0.4527     0.4979     0.6464     0.6492
                     A1         B1         A1         A1         B1  
    1  S  1  S   -0.070616   0.000000  -0.048444   0.074422   0.000000
    2  S  1  S   -0.218396   0.000000  -0.089489   0.355262   0.000000
    3  S  1  S   -1.039683   0.000000  -0.631116   1.265892   0.000000
    4  S  1  S    1.479485   0.000000   2.371262   0.276161   0.000000
    5  S  1  X    0.000000   0.195486   0.000000   0.000000  -0.228368
    6  S  1  Y    0.000000   0.000000   0.000000   0.000000   0.000000
    7  S  1  Z   -0.242230   0.000000   0.033231  -0.126644   0.000000
    8  S  1  X    0.000000  -0.539459   0.000000   0.000000   1.260747
    9  S  1  Y    0.000000   0.000000   0.000000   0.000000   0.000000
   10  S  1  Z    0.952822   0.000000   0.075513   0.710640   0.000000
   11  S  1  X    0.000000   1.249017   0.000000   0.000000  -0.246410
   12  S  1  Y    0.000000   0.000000   0.000000   0.000000   0.000000
   13  S  1  Z   -0.666422   0.000000   0.725889   0.187677   0.000000
   14  S  1 XX   -0.176884   0.000000   0.525059  -0.355761   0.000000
   15  S  1 YY    0.233635   0.000000  -0.681467  -0.127144   0.000000
   16  S  1 ZZ   -0.056751   0.000000   0.156408   0.482905   0.000000
   17  S  1 XY    0.000000   0.000000   0.000000   0.000000   0.000000
   18  S  1 XZ    0.000000   0.670282   0.000000   0.000000   0.117107
   19  S  1 YZ    0.000000   0.000000   0.000000   0.000000   0.000000
   20  O  2  S    0.013888  -0.019103   0.032963   0.042382  -0.058427
   21  O  2  S   -0.052275  -0.036402  -0.016087  -0.042841   0.091815
   22  O  2  S   -0.165216   0.859950  -1.062043  -0.527100   0.705107
   23  O  2  X   -0.009696  -0.196272   0.218054   0.131536  -0.118811
   24  O  2  Y    0.000000   0.000000   0.000000   0.000000   0.000000
   25  O  2  Z   -0.019618   0.170561  -0.245641  -0.015487   0.171562
   26  O  2  X   -0.146573   0.403034  -0.424961  -0.922687   0.991052
   27  O  2  Y    0.000000   0.000000   0.000000   0.000000   0.000000
   28  O  2  Z    0.063369  -0.244501   0.529533   0.310245  -0.835188
   29  O  2 XX    0.014334  -0.002708  -0.023595   0.039420   0.019501
   30  O  2 YY    0.016547  -0.031409   0.007005  -0.012161   0.003454
   31  O  2 ZZ   -0.030881   0.034116   0.016590  -0.027259  -0.022955
   32  O  2 XY    0.000000   0.000000   0.000000   0.000000   0.000000
   33  O  2 XZ    0.009984  -0.042952   0.054901  -0.015691  -0.002594
   34  O  2 YZ    0.000000   0.000000   0.000000   0.000000   0.000000
   35  O  3  S    0.013888   0.019103   0.032963   0.042382   0.058427
   36  O  3  S   -0.052275   0.036402  -0.016087  -0.042841  -0.091815
   37  O  3  S   -0.165216  -0.859950  -1.062043  -0.527100  -0.705107
   38  O  3  X    0.009696  -0.196272  -0.218054  -0.131536  -0.118811
   39  O  3  Y    0.000000   0.000000   0.000000   0.000000   0.000000
   40  O  3  Z   -0.019618  -0.170561  -0.245641  -0.015487  -0.171562
   41  O  3  X    0.146573   0.403034   0.424961   0.922687   0.991052
   42  O  3  Y    0.000000   0.000000   0.000000   0.000000   0.000000
   43  O  3  Z    0.063369   0.244501   0.529533   0.310245   0.835188
   44  O  3 XX    0.014334   0.002708  -0.023595   0.039420  -0.019501
   45  O  3 YY    0.016547   0.031409   0.007005  -0.012161  -0.003454
   46  O  3 ZZ   -0.030881  -0.034116   0.016590  -0.027259   0.022955
   47  O  3 XY    0.000000   0.000000   0.000000   0.000000   0.000000
   48  O  3 XZ   -0.009984  -0.042952  -0.054901   0.015691  -0.002594
   49  O  3 YZ    0.000000   0.000000   0.000000   0.000000   0.000000

                     26         27         28         29         30
                    0.6545     0.6626     0.7257     0.7729     0.8055
                     B2         A2         A1         A2         B2  
    1  S  1  S    0.000000   0.000000   0.051903   0.000000   0.000000
    2  S  1  S    0.000000   0.000000   0.294527   0.000000   0.000000
    3  S  1  S    0.000000   0.000000   0.938807   0.000000   0.000000
    4  S  1  S    0.000000   0.000000  -0.399281   0.000000   0.000000
    5  S  1  X    0.000000   0.000000   0.000000   0.000000   0.000000
    6  S  1  Y    0.006626   0.000000   0.000000   0.000000  -0.035205
    7  S  1  Z    0.000000   0.000000  -0.097014   0.000000   0.000000
    8  S  1  X    0.000000   0.000000   0.000000   0.000000   0.000000
    9  S  1  Y   -0.061922   0.000000   0.000000   0.000000   0.058264
   10  S  1  Z    0.000000   0.000000   0.456013   0.000000   0.000000
   11  S  1  X    0.000000   0.000000   0.000000   0.000000   0.000000
   12  S  1  Y    0.384462   0.000000   0.000000   0.000000  -0.953316
   13  S  1  Z    0.000000   0.000000  -0.932830   0.000000   0.000000
   14  S  1 XX    0.000000   0.000000   0.378360   0.000000   0.000000
   15  S  1 YY    0.000000   0.000000   0.302763   0.000000   0.000000
   16  S  1 ZZ    0.000000   0.000000  -0.681123   0.000000   0.000000
   17  S  1 XY    0.000000   1.054737   0.000000   0.085841   0.000000
   18  S  1 XZ    0.000000   0.000000   0.000000   0.000000   0.000000
   19  S  1 YZ    0.981480   0.000000   0.000000   0.000000  -0.367590
   20  O  2  S    0.000000   0.000000   0.016323   0.000000   0.000000
   21  O  2  S    0.000000   0.000000   0.015042   0.000000   0.000000
   22  O  2  S    0.000000   0.000000   0.030832   0.000000   0.000000
   23  O  2  X    0.000000   0.000000  -0.143316   0.000000   0.000000
   24  O  2  Y   -0.349676   0.217463   0.000000  -0.627249  -0.573734
   25  O  2  Z    0.000000   0.000000  -0.247707   0.000000   0.000000
   26  O  2  X    0.000000   0.000000   0.054125   0.000000   0.000000
   27  O  2  Y   -0.131723   0.316189   0.000000   0.865701   1.034949
   28  O  2  Z    0.000000   0.000000   0.928603   0.000000   0.000000
   29  O  2 XX    0.000000   0.000000  -0.008335   0.000000   0.000000
   30  O  2 YY    0.000000   0.000000  -0.009796   0.000000   0.000000
   31  O  2 ZZ    0.000000   0.000000   0.018132   0.000000   0.000000
   32  O  2 XY    0.053839  -0.005563   0.000000  -0.042696  -0.010032
   33  O  2 XZ    0.000000   0.000000  -0.030654   0.000000   0.000000
   34  O  2 YZ    0.023448   0.055113   0.000000   0.003069   0.026790
   35  O  3  S    0.000000   0.000000   0.016323   0.000000   0.000000
   36  O  3  S    0.000000   0.000000   0.015042   0.000000   0.000000
   37  O  3  S    0.000000   0.000000   0.030832   0.000000   0.000000
   38  O  3  X    0.000000   0.000000   0.143316   0.000000   0.000000
   39  O  3  Y   -0.349676  -0.217463   0.000000   0.627249  -0.573734
   40  O  3  Z    0.000000   0.000000  -0.247707   0.000000   0.000000
   41  O  3  X    0.000000   0.000000  -0.054125   0.000000   0.000000
   42  O  3  Y   -0.131723  -0.316189   0.000000  -0.865701   1.034949
   43  O  3  Z    0.000000   0.000000   0.928603   0.000000   0.000000
   44  O  3 XX    0.000000   0.000000  -0.008335   0.000000   0.000000
   45  O  3 YY    0.000000   0.000000  -0.009796   0.000000   0.000000
   46  O  3 ZZ    0.000000   0.000000   0.018132   0.000000   0.000000
   47  O  3 XY   -0.053839  -0.005563   0.000000  -0.042696   0.010032
   48  O  3 XZ    0.000000   0.000000   0.030654   0.000000   0.000000
   49  O  3 YZ    0.023448  -0.055113   0.000000  -0.003069   0.026790

                     31         32         33         34         35
                    0.8460     0.9346     1.2963     1.5603     1.6325
                     A1         B1         A1         B1         A1  
    1  S  1  S   -0.009485   0.000000  -0.039025   0.000000  -0.002582
    2  S  1  S   -0.062519   0.000000   0.121763   0.000000  -0.074178
    3  S  1  S   -0.182467   0.000000  -0.302994   0.000000  -0.109666
    4  S  1  S   -0.068406   0.000000  -0.454130   0.000000   2.863298
    5  S  1  X    0.000000   0.045812   0.000000  -0.170979   0.000000
    6  S  1  Y    0.000000   0.000000   0.000000   0.000000   0.000000
    7  S  1  Z    0.007442   0.000000   0.196650   0.000000  -0.089298
    8  S  1  X    0.000000  -0.181791   0.000000   0.915753   0.000000
    9  S  1  Y    0.000000   0.000000   0.000000   0.000000   0.000000
   10  S  1  Z   -0.124060   0.000000  -0.736227   0.000000   0.628034
   11  S  1  X    0.000000   1.018063   0.000000   0.918505   0.000000
   12  S  1  Y    0.000000   0.000000   0.000000   0.000000   0.000000
   13  S  1  Z    0.028079   0.000000  -0.070159   0.000000   1.163774
   14  S  1 XX   -0.580789   0.000000  -0.649028   0.000000   0.175930
   15  S  1 YY   -0.046805   0.000000   0.752214   0.000000  -0.440245
   16  S  1 ZZ    0.627594   0.000000  -0.103186   0.000000   0.264315
   17  S  1 XY    0.000000   0.000000   0.000000   0.000000   0.000000
   18  S  1 XZ    0.000000   0.079196   0.000000   0.817449   0.000000
   19  S  1 YZ    0.000000   0.000000   0.000000   0.000000   0.000000
   20  O  2  S   -0.000357   0.006165  -0.040340  -0.012008   0.009400
   21  O  2  S   -0.003678  -0.006314   0.501624  -0.722428   1.125242
   22  O  2  S    0.077237   0.171880   0.243595   2.040862  -2.669838
   23  O  2  X   -0.429142   0.398249   0.521152   0.386726  -0.214057
   24  O  2  Y    0.000000   0.000000   0.000000   0.000000   0.000000
   25  O  2  Z   -0.468535   0.461761  -0.387977  -0.325513   0.150110
   26  O  2  X    0.303794  -0.941877  -0.119811   0.293731  -0.430502
   27  O  2  Y    0.000000   0.000000   0.000000   0.000000   0.000000
   28  O  2  Z    0.089708  -0.807535   0.050510  -0.312642   0.244040
   29  O  2 XX    0.045516   0.059512  -0.130373  -0.102376  -0.056757
   30  O  2 YY   -0.000123  -0.032015   0.132574   0.123699   0.056393
   31  O  2 ZZ   -0.045393  -0.027497  -0.002200  -0.021323   0.000364
   32  O  2 XY    0.000000   0.000000   0.000000   0.000000   0.000000
   33  O  2 XZ    0.024924   0.024916  -0.032512   0.156833  -0.220928
   34  O  2 YZ    0.000000   0.000000   0.000000   0.000000   0.000000
   35  O  3  S   -0.000357  -0.006165  -0.040340   0.012008   0.009400
   36  O  3  S   -0.003678   0.006314   0.501624   0.722428   1.125242
   37  O  3  S    0.077237  -0.171880   0.243595  -2.040862  -2.669838
   38  O  3  X    0.429142   0.398249  -0.521152   0.386726   0.214057
   39  O  3  Y    0.000000   0.000000   0.000000   0.000000   0.000000
   40  O  3  Z   -0.468535  -0.461761  -0.387977   0.325513   0.150110
   41  O  3  X   -0.303794  -0.941877   0.119811   0.293731   0.430502
   42  O  3  Y    0.000000   0.000000   0.000000   0.000000   0.000000
   43  O  3  Z    0.089708   0.807535   0.050510   0.312642   0.244040
   44  O  3 XX    0.045516  -0.059512  -0.130373   0.102376  -0.056757
   45  O  3 YY   -0.000123   0.032015   0.132574  -0.123699   0.056393
   46  O  3 ZZ   -0.045393   0.027497  -0.002200   0.021323   0.000364
   47  O  3 XY    0.000000   0.000000   0.000000   0.000000   0.000000
   48  O  3 XZ   -0.024924   0.024916   0.032512   0.156833   0.220928
   49  O  3 YZ    0.000000   0.000000   0.000000   0.000000   0.000000

                     36         37         38         39         40
                    1.7495     2.0268     2.1018     2.1173     2.1229
                     B1         B2         A1         A2         B1  
    1  S  1  S    0.000000   0.000000   0.008292   0.000000   0.000000
    2  S  1  S    0.000000   0.000000  -0.014285   0.000000   0.000000
    3  S  1  S    0.000000   0.000000   0.080039   0.000000   0.000000
    4  S  1  S    0.000000   0.000000  -0.733142   0.000000   0.000000
    5  S  1  X   -0.149386   0.000000   0.000000   0.000000   0.003815
    6  S  1  Y    0.000000  -0.015929   0.000000   0.000000   0.000000
    7  S  1  Z    0.000000   0.000000  -0.028440   0.000000   0.000000
    8  S  1  X    0.429389   0.000000   0.000000   0.000000   0.037344
    9  S  1  Y    0.000000   0.086969   0.000000   0.000000   0.000000
   10  S  1  Z    0.000000   0.000000   0.046126   0.000000   0.000000
   11  S  1  X   -0.252178   0.000000   0.000000   0.000000   0.029249
   12  S  1  Y    0.000000   0.038939   0.000000   0.000000   0.000000
   13  S  1  Z    0.000000   0.000000  -0.338259   0.000000   0.000000
   14  S  1 XX    0.000000   0.000000   0.081459   0.000000   0.000000
   15  S  1 YY    0.000000   0.000000  -0.278458   0.000000   0.000000
   16  S  1 ZZ    0.000000   0.000000   0.196999   0.000000   0.000000
   17  S  1 XY    0.000000   0.000000   0.000000  -0.018266   0.000000
   18  S  1 XZ    0.862711   0.000000   0.000000   0.000000  -0.449984
   19  S  1 YZ    0.000000  -0.130201   0.000000   0.000000   0.000000
   20  O  2  S   -0.012717   0.000000  -0.000088   0.000000  -0.001500
   21  O  2  S    0.996783   0.000000  -0.480405   0.000000  -0.299715
   22  O  2  S   -0.715497   0.000000   0.734737   0.000000   0.168437
   23  O  2  X    0.329255   0.000000  -0.103262   0.000000  -0.093594
   24  O  2  Y    0.000000   0.061447   0.000000  -0.065205   0.000000
   25  O  2  Z   -0.357667   0.000000   0.034223   0.000000   0.127112
   26  O  2  X   -0.174536   0.000000   0.182162   0.000000   0.015281
   27  O  2  Y    0.000000  -0.076246   0.000000   0.100680   0.000000
   28  O  2  Z    0.266722   0.000000  -0.091329   0.000000  -0.121347
   29  O  2 XX    0.175827   0.000000  -0.344133   0.000000  -0.204839
   30  O  2 YY   -0.235369   0.000000   0.604720   0.000000  -0.448461
   31  O  2 ZZ    0.059541   0.000000  -0.260587   0.000000   0.653300
   32  O  2 XY    0.000000   0.353325   0.000000   0.590971   0.000000
   33  O  2 XZ    0.152909   0.000000  -0.314280   0.000000   0.224710
   34  O  2 YZ    0.000000   0.612702   0.000000   0.401915   0.000000
   35  O  3  S    0.012717   0.000000  -0.000088   0.000000   0.001500
   36  O  3  S   -0.996783   0.000000  -0.480405   0.000000   0.299715
   37  O  3  S    0.715497   0.000000   0.734737   0.000000  -0.168437
   38  O  3  X    0.329255   0.000000   0.103262   0.000000  -0.093594
   39  O  3  Y    0.000000   0.061447   0.000000   0.065205   0.000000
   40  O  3  Z    0.357667   0.000000   0.034223   0.000000  -0.127112
   41  O  3  X   -0.174536   0.000000  -0.182162   0.000000   0.015281
   42  O  3  Y    0.000000  -0.076246   0.000000  -0.100680   0.000000
   43  O  3  Z   -0.266722   0.000000  -0.091329   0.000000   0.121347
   44  O  3 XX   -0.175827   0.000000  -0.344133   0.000000   0.204839
   45  O  3 YY    0.235369   0.000000   0.604720   0.000000   0.448461
   46  O  3 ZZ   -0.059541   0.000000  -0.260587   0.000000  -0.653300
   47  O  3 XY    0.000000  -0.353325   0.000000   0.590971   0.000000
   48  O  3 XZ    0.152909   0.000000   0.314280   0.000000   0.224710
   49  O  3 YZ    0.000000   0.612702   0.000000  -0.401915   0.000000

                     41         42         43         44         45
                    2.4350     2.5412     2.5660     2.7321     2.8748
                     A2         B2         B1         A1         B1  
    1  S  1  S    0.000000   0.000000   0.000000   0.014772   0.000000
    2  S  1  S    0.000000   0.000000   0.000000   0.152029   0.000000
    3  S  1  S    0.000000   0.000000   0.000000   0.385804   0.000000
    4  S  1  S    0.000000   0.000000   0.000000   0.351038   0.000000
    5  S  1  X    0.000000   0.000000   0.073364   0.000000  -0.197556
    6  S  1  Y    0.000000   0.112018   0.000000   0.000000   0.000000
    7  S  1  Z    0.000000   0.000000   0.000000   0.079916   0.000000
    8  S  1  X    0.000000   0.000000  -0.073550   0.000000   2.019626
    9  S  1  Y    0.000000  -0.578085   0.000000   0.000000   0.000000
   10  S  1  Z    0.000000   0.000000   0.000000  -0.199665   0.000000
   11  S  1  X    0.000000   0.000000  -0.044832   0.000000   0.427981
   12  S  1  Y    0.000000  -0.189389   0.000000   0.000000   0.000000
   13  S  1  Z    0.000000   0.000000   0.000000  -0.086894   0.000000
   14  S  1 XX    0.000000   0.000000   0.000000   0.880092   0.000000
   15  S  1 YY    0.000000   0.000000   0.000000  -0.060737   0.000000
   16  S  1 ZZ    0.000000   0.000000   0.000000  -0.819355   0.000000
   17  S  1 XY    0.699500   0.000000   0.000000   0.000000   0.000000
   18  S  1 XZ    0.000000   0.000000  -0.140404   0.000000   1.027053
   19  S  1 YZ    0.000000  -0.624184   0.000000   0.000000   0.000000
   20  O  2  S    0.000000   0.000000  -0.008474   0.004190  -0.040425
   21  O  2  S    0.000000   0.000000  -0.588777   0.240894  -0.353946
   22  O  2  S    0.000000   0.000000   0.768626  -0.497867   2.077512
   23  O  2  X    0.000000   0.000000  -0.193821   0.088661   0.351302
   24  O  2  Y   -0.004185   0.020712   0.000000   0.000000   0.000000
   25  O  2  Z    0.000000   0.000000   0.006494   0.090792  -0.295325
   26  O  2  X    0.000000   0.000000   0.601020  -0.024479   0.809625
   27  O  2  Y    0.289980   0.319055   0.000000   0.000000   0.000000
   28  O  2  Z    0.000000   0.000000   0.047274   0.424909  -0.708618
   29  O  2 XX    0.000000   0.000000   0.709427   0.624299   0.236804
   30  O  2 YY    0.000000   0.000000  -0.402758   0.195791  -0.432226
   31  O  2 ZZ    0.000000   0.000000  -0.306670  -0.820089   0.195422
   32  O  2 XY    0.473223   0.717356   0.000000   0.000000   0.000000
   33  O  2 XZ    0.000000   0.000000   0.188927   0.241724  -0.829702
   34  O  2 YZ   -0.661652  -0.423135   0.000000   0.000000   0.000000
   35  O  3  S    0.000000   0.000000   0.008474   0.004190   0.040425
   36  O  3  S    0.000000   0.000000   0.588777   0.240894   0.353946
   37  O  3  S    0.000000   0.000000  -0.768626  -0.497867  -2.077512
   38  O  3  X    0.000000   0.000000  -0.193821  -0.088661   0.351302
   39  O  3  Y    0.004185   0.020712   0.000000   0.000000   0.000000
   40  O  3  Z    0.000000   0.000000  -0.006494   0.090792   0.295325
   41  O  3  X    0.000000   0.000000   0.601020   0.024479   0.809625
   42  O  3  Y   -0.289980   0.319055   0.000000   0.000000   0.000000
   43  O  3  Z    0.000000   0.000000  -0.047274   0.424909   0.708618
   44  O  3 XX    0.000000   0.000000  -0.709427   0.624299  -0.236804
   45  O  3 YY    0.000000   0.000000   0.402758   0.195791   0.432226
   46  O  3 ZZ    0.000000   0.000000   0.306670  -0.820089  -0.195422
   47  O  3 XY    0.473223  -0.717356   0.000000   0.000000   0.000000
   48  O  3 XZ    0.000000   0.000000   0.188927  -0.241724  -0.829702
   49  O  3 YZ    0.661652  -0.423135   0.000000   0.000000   0.000000

                     46
                    2.9903
                     A1  
    1  S  1  S   -0.076842
    2  S  1  S   -0.571082
    3  S  1  S   -1.744829
    4  S  1  S   -1.353438
    5  S  1  X    0.000000
    6  S  1  Y    0.000000
    7  S  1  Z    0.133264
    8  S  1  X    0.000000
    9  S  1  Y    0.000000
   10  S  1  Z   -1.524750
   11  S  1  X    0.000000
   12  S  1  Y    0.000000
   13  S  1  Z   -0.291480
   14  S  1 XX   -0.199748
   15  S  1 YY    0.467540
   16  S  1 ZZ   -0.267792
   17  S  1 XY    0.000000
   18  S  1 XZ    0.000000
   19  S  1 YZ    0.000000
   20  O  2  S   -0.045818
   21  O  2  S   -0.422534
   22  O  2  S    1.851773
   23  O  2  X    0.271933
   24  O  2  Y    0.000000
   25  O  2  Z   -0.187795
   26  O  2  X    0.763771
   27  O  2  Y    0.000000
   28  O  2  Z   -0.587461
   29  O  2 XX    0.499516
   30  O  2 YY   -0.439056
   31  O  2 ZZ   -0.060460
   32  O  2 XY    0.000000
   33  O  2 XZ   -0.779221
   34  O  2 YZ    0.000000
   35  O  3  S   -0.045818
   36  O  3  S   -0.422534
   37  O  3  S    1.851773
   38  O  3  X   -0.271933
   39  O  3  Y    0.000000
   40  O  3  Z   -0.187795
   41  O  3  X   -0.763771
   42  O  3  Y    0.000000
   43  O  3  Z   -0.587461
   44  O  3 XX    0.499516
   45  O  3 YY   -0.439056
   46  O  3 ZZ   -0.060460
   47  O  3 XY    0.000000
   48  O  3 XZ    0.779221
   49  O  3 YZ    0.000000
 ...... END OF RHF CALCULATION ......
 STEP CPU TIME =     3.99 TOTAL CPU TIME =        4.4 (    0.1 MIN)
 TOTAL WALL CLOCK TIME=        4.4 SECONDS, CPU UTILIZATION IS 100.00%

     ---------------------------------------------------------------------
     PROPERTIES FOR THE PBE      DFT FUNCTIONAL (RHF  TYPE) DENSITY MATRIX
     ---------------------------------------------------------------------

          -----------------
          ENERGY COMPONENTS
          -----------------

         WAVEFUNCTION NORMALIZATION =       1.0000000000

                ONE ELECTRON ENERGY =   -1015.7599238723
                TWO ELECTRON ENERGY =     336.5656433071
           NUCLEAR REPULSION ENERGY =     131.3122621980
                                      ------------------
                       TOTAL ENERGY =    -547.8820183672

 ELECTRON-ELECTRON POTENTIAL ENERGY =     336.5656433071
  NUCLEUS-ELECTRON POTENTIAL ENERGY =   -1566.7431594192
   NUCLEUS-NUCLEUS POTENTIAL ENERGY =     131.3122621980
                                      ------------------
             TOTAL POTENTIAL ENERGY =   -1098.8652539141
               TOTAL KINETIC ENERGY =     550.9832355469
                 VIRIAL RATIO (V/T) =       1.9943714854

          ---------------------------------------
          MULLIKEN AND LOWDIN POPULATION ANALYSES
          ---------------------------------------

     ATOMIC MULLIKEN POPULATION IN EACH MOLECULAR ORBITAL

                      1          2          3          4          5

                  2.000000   2.000000   2.000000   2.000000   2.000000

    1             2.000068  -0.000217   0.002324   2.002747   1.998791
    2            -0.000034   1.000108   0.998838  -0.001373   0.000605
    3            -0.000034   1.000108   0.998838  -0.001373   0.000605

                      6          7          8          9         10

                  2.000000   2.000000   2.000000   2.000000   2.000000

    1             1.999956   1.999151   0.754367   0.603581   1.173087
    2             0.000022   0.000425   0.622817   0.698210   0.413456
    3             0.000022   0.000425   0.622817   0.698210   0.413456

                     11         12         13         14         15

                  2.000000   2.000000   2.000000   2.000000   2.000000

    1             0.918326   0.238797   0.234571   0.188364   1.057713
    2             0.540837   0.880602   0.882715   0.905818   0.471144
    3             0.540837   0.880602   0.882715   0.905818   0.471144

                     16

                  2.000000

    1             0.259312
    2             0.870344
    3             0.870344

               ----- POPULATIONS IN EACH AO -----
                             MULLIKEN      LOWDIN
              1  S  1  S      2.00026     1.99584
              2  S  1  S      2.01122     1.91830
              3  S  1  S      0.89109     0.52054
              4  S  1  S      0.92198     0.56547
              5  S  1  X      1.99657     1.95779
              6  S  1  Y      1.99552     1.95453
              7  S  1  Z      1.99713     1.96566
              8  S  1  X      0.70862     0.61552
              9  S  1  Y      0.65425     0.58010
             10  S  1  Z      0.89197     0.83977
             11  S  1  X      0.16279     0.27882
             12  S  1  Y      0.21722     0.28509
             13  S  1  Z      0.21221     0.36455
             14  S  1 XX      0.16162     0.33635
             15  S  1 YY      0.14079     0.21886
             16  S  1 ZZ      0.18836     0.33428
             17  S  1 XY      0.22806     0.24104
             18  S  1 XZ      0.05129     0.28041
             19  S  1 YZ      0.00000     0.05044
             20  O  2  S      1.99798     1.97888
             21  O  2  S      0.80025     0.60677
             22  O  2  S      0.89647     0.49489
             23  O  2  X      1.12637     1.09032
             24  O  2  Y      0.91802     0.86956
             25  O  2  Z      1.05398     1.02718
             26  O  2  X      0.45331     0.52778
             27  O  2  Y      0.51497     0.55497
             28  O  2  Z      0.48635     0.57960
             29  O  2 XX      0.00766     0.19692
             30  O  2 YY      0.00446     0.18491
             31  O  2 ZZ      0.00750     0.19099
             32  O  2 XY      0.01102     0.01187
             33  O  2 XZ      0.00619     0.02567
             34  O  2 YZ      0.00000     0.00800
             35  O  3  S      1.99798     1.97888
             36  O  3  S      0.80025     0.60677
             37  O  3  S      0.89647     0.49489
             38  O  3  X      1.12637     1.09032
             39  O  3  Y      0.91802     0.86956
             40  O  3  Z      1.05398     1.02718
             41  O  3  X      0.45331     0.52778
             42  O  3  Y      0.51497     0.55497
             43  O  3  Z      0.48635     0.57960
             44  O  3 XX      0.00766     0.19692
             45  O  3 YY      0.00446     0.18491
             46  O  3 ZZ      0.00750     0.19099
             47  O  3 XY      0.01102     0.01187
             48  O  3 XZ      0.00619     0.02567
             49  O  3 YZ      0.00000     0.00800

          ----- MULLIKEN ATOMIC OVERLAP POPULATIONS -----
          (OFF-DIAGONAL ELEMENTS NEED TO BE MULTIPLIED BY 2)

             1           2           3

    1   14.4058937
    2    0.5125207   8.0090644
    3    0.5125207  -0.2370526   8.0090644

          TOTAL MULLIKEN AND LOWDIN ATOMIC POPULATIONS
       ATOM         MULL.POP.    CHARGE          LOW.POP.     CHARGE
    1 S            15.430935    0.569065        15.303356    0.696644
    2 O             8.284532   -0.284532         8.348322   -0.348322
    3 O             8.284532   -0.284532         8.348322   -0.348322

          MULLIKEN SPHERICAL HARMONIC POPULATIONS
       ATOM           S       P       D      F      G      H      I    TOTAL
    1 S             5.82    8.84    0.77   0.00   0.00   0.00   0.00   15.43
    2 O             3.69    4.55    0.04   0.00   0.00   0.00   0.00    8.28
    3 O             3.69    4.55    0.04   0.00   0.00   0.00   0.00    8.28

          -------------------------------
          BOND ORDER AND VALENCE ANALYSIS     BOND ORDER THRESHOLD=0.050
          -------------------------------

                   BOND                       BOND                       BOND
  ATOM PAIR DIST  ORDER      ATOM PAIR DIST  ORDER      ATOM PAIR DIST  ORDER
    1   2  1.200  2.085        1   3  1.200  2.085        2   3  1.839  0.050

                       TOTAL       BONDED        FREE
      ATOM            VALENCE     VALENCE     VALENCE
    1 S                 4.171       4.171       0.000
    2 O                 2.136       2.136       0.000
    3 O                 2.136       2.136       0.000

          ---------------------
          ELECTROSTATIC MOMENTS
          ---------------------

 POINT   1           X           Y           Z (BOHR)    CHARGE
                 0.000000    0.000000    0.000000        0.00 (A.U.)
         DX          DY          DZ         /D/  (DEBYE)
     0.000000    0.000000   -1.816465    1.816465
 ...... END OF PROPERTY EVALUATION ......
 STEP CPU TIME =     0.00 TOTAL CPU TIME =        4.4 (    0.1 MIN)
 TOTAL WALL CLOCK TIME=        4.4 SECONDS, CPU UTILIZATION IS  99.77%
               580000  WORDS OF DYNAMIC MEMORY USED
 EXECUTION OF GAMESS TERMINATED NORMALLY Thu Feb 26 00:12:42 2015
 DDI: 263624 bytes (0.3 MB / 0 MWords) used by master data server.

 ----------------------------------------
 CPU timing information for all processes
 ========================================
 0: 4.168 + 0.214 = 4.383
 ----------------------------------------
 ddikick.x: exited gracefully.
----- accounting info -----
Files used on the master node dftfe.crc.nd.edu were:
-rw-r--r-- 1 pmehta1 campus   37475 Feb 26 00:12 /tmp/gamess.dat
-rw-r--r-- 1 pmehta1 campus     142 Feb 26 00:12 /tmp/gamess.F05
-rw-r--r-- 1 pmehta1 campus 2340312 Feb 26 00:12 /tmp/gamess.F08
-rw-r--r-- 1 pmehta1 campus 1220440 Feb 26 00:12 /tmp/gamess.F10
Thu Feb 26 00:12:45 EST 2015
0.230u 0.193s 0:08.73 4.8%	0+0k 0+96io 0pf+0w
