----- GAMESS execution script 'rungms' -----
This job is running on host dftfe.crc.nd.edu
under operating system Linux at Thu Feb 26 00:21:37 EST 2015
Available scratch disk space (Kbyte units) at beginning of the job is
Filesystem     1K-blocks     Used Available Use% Mounted on
/dev/sda2      147771864 22817568 117447864  17% /
GAMESS temporary binary files will be written to /tmp
GAMESS supplementary output files will be written to /tmp
Copying input file gamess.inp to your run's scratch directory...

 Distributed Data Interface kickoff program.
 Initiating 1 compute processes on 1 nodes to run the following command:
 /opt/crc/gamess/2012R1/gamess/gamess.00.x gamess 

          ******************************************************
          *         GAMESS VERSION =  1 MAY 2012 (R1)          *
          *             FROM IOWA STATE UNIVERSITY             *
          * M.W.SCHMIDT, K.K.BALDRIDGE, J.A.BOATZ, S.T.ELBERT, *
          *   M.S.GORDON, J.H.JENSEN, S.KOSEKI, N.MATSUNAGA,   *
          *          K.A.NGUYEN, S.J.SU, T.L.WINDUS,           *
          *       TOGETHER WITH M.DUPUIS, J.A.MONTGOMERY       *
          *         J.COMPUT.CHEM.  14, 1347-1363(1993)        *
          **************** 64 BIT LINUX VERSION ****************

  SINCE 1993, STUDENTS AND POSTDOCS WORKING AT IOWA STATE UNIVERSITY
  AND ALSO IN THEIR VARIOUS JOBS AFTER LEAVING ISU HAVE MADE IMPORTANT
  CONTRIBUTIONS TO THE CODE:
     IVANA ADAMOVIC, CHRISTINE AIKENS, YURI ALEXEEV, POOJA ARORA,
     ANDREY ASADCHEV, ROB BELL, PRADIPTA BANDYOPADHYAY, JONATHAN BENTZ,
     BRETT BODE, GALINA CHABAN, WEI CHEN, CHEOL HO CHOI, PAUL DAY,
     ALBERT DEFUSCO, TIM DUDLEY, DMITRI FEDOROV, GRAHAM FLETCHER,
     MARK FREITAG, KURT GLAESEMANN, DAN KEMP, GRANT MERRILL,
     NORIYUKI MINEZAWA, JONATHAN MULLIN, TAKESHI NAGATA,
     SEAN NEDD, HEATHER NETZLOFF, BOSILJKA NJEGIC, RYAN OLSON, MIKE PAK,
     JIM SHOEMAKER, LYUDMILA SLIPCHENKO, SAROM SOK, JIE SONG,
     TETSUYA TAKETSUGU, SIMON WEBB, SOOHAENG YOO, FEDERICO ZAHARIEV

  ADDITIONAL CODE HAS BEEN PROVIDED BY COLLABORATORS IN OTHER GROUPS:
     IOWA STATE UNIVERSITY:
          JOE IVANIC, LAIMUTIS BYTAUTAS, KLAUS RUEDENBERG
     UNIVERSITY OF TOKYO: KIMIHIKO HIRAO, TAKAHITO NAKAJIMA,
          TAKAO TSUNEDA, MUNEAKI KAMIYA, SUSUMU YANAGISAWA,
          KIYOSHI YAGI, MAHITO CHIBA, SEIKEN TOKURA, NAOAKI KAWAKAMI
     UNIVERSITY OF AARHUS: FRANK JENSEN
     UNIVERSITY OF IOWA: VISVALDAS KAIRYS, HUI LI
     NATIONAL INST. OF STANDARDS AND TECHNOLOGY: WALT STEVENS, DAVID GARMER
     UNIVERSITY OF PISA: BENEDETTA MENNUCCI, JACOPO TOMASI
     UNIVERSITY OF MEMPHIS: HENRY KURTZ, PRAKASHAN KORAMBATH
     UNIVERSITY OF ALBERTA: TOBY ZENG, MARIUSZ KLOBUKOWSKI
     UNIVERSITY OF NEW ENGLAND: MARK SPACKMAN
     MIE UNIVERSITY: HIROAKI UMEDA
     MICHIGAN STATE UNIVERSITY:
          KAROL KOWALSKI, MARTA WLOCH, JEFFREY GOUR, JESSE LUTZ, PIOTR PIECUCH
     UNIVERSITY OF SILESIA: MONIKA MUSIAL, STANISLAW KUCHARSKI
     FACULTES UNIVERSITAIRES NOTRE-DAME DE LA PAIX:
          OLIVIER QUINET, BENOIT CHAMPAGNE
     UNIVERSITY OF CALIFORNIA - SANTA BARBARA: BERNARD KIRTMAN
     INSTITUTE FOR MOLECULAR SCIENCE:
          KAZUYA ISHIMURA, MICHIO KATOUDA, AND SHIGERU NAGASE
     UNIVERSITY OF NOTRE DAME: DAN CHIPMAN
     KYUSHU UNIVERSITY:
          HARUYUKI NAKANO,
          FENG LONG GU, JACEK KORCHOWIEC, MARCIN MAKOWSKI, AND YURIKO AOKI,
          HIROTOSHI MORI AND EISAKU MIYOSHI
     PENNSYLVANIA STATE UNIVERSITY:
          TZVETELIN IORDANOV, CHET SWALINA, JONATHAN SKONE,
          SHARON HAMMES-SCHIFFER
     WASEDA UNIVERSITY:
          MASATO KOBAYASHI, TOMOKO AKAMA, TSUGUKI TOUMA,
          TAKESHI YOSHIKAWA, YASUHIRO IKABATA, HIROMI NAKAI
     UNIVERSITY OF NEBRASKA:
          PEIFENG SU, DEJUN SI, NANDUN THELLAMUREGE, YALI WANG, HUI LI
     UNIVERSITY OF ZURICH:
          ROBERTO PEVERATI, KIM BALDRIDGE
     N. COPERNICUS UNIVERSITY AND JACKSON STATE UNIVERSITY:
          MARIA BARYSZ

 EXECUTION OF GAMESS BEGUN Thu Feb 26 00:21:37 2015

            ECHO OF THE FIRST FEW INPUT CARDS -
 INPUT CARD> $BASIS GBASIS=PC1 $END                                                         
 INPUT CARD> $CONTRL COORD=ZMT ISPHER=1 RUNTYP=ENERGY DFTTYP=PBE $END                       
 INPUT CARD>                                                                                
 INPUT CARD> $DATA                                                                          
 INPUT CARD>Title                                                                           
 INPUT CARD>Cnv 2                                                                           
 INPUT CARD>                                                                                
 INPUT CARD>S                                                                               
 INPUT CARD>O 1 1.90                                                                        
 INPUT CARD>O 1 1.90 2 110.0                                                                
 INPUT CARD> $END                                                                           
    1000000 WORDS OF MEMORY AVAILABLE

     BASIS OPTIONS
     -------------
     GBASIS=PC1          IGAUSS=       0      POLAR=NONE    
     NDFUNC=       0     NFFUNC=       0     DIFFSP=       F
     NPFUNC=       0      DIFFS=       F     BASNAM=        


     RUN TITLE
     ---------
 Title                                                                           

 THE POINT GROUP OF THE MOLECULE IS CNV     
 THE ORDER OF THE PRINCIPAL AXIS IS     2

 YOUR FULLY SUBSTITUTED Z-MATRIX IS
 S   
 O      1   1.9000000
 O      1   1.9000000  2  110.0000

 THE MOMENTS OF INERTIA ARE (AMU-ANGSTROM**2)
 IXX=    18.991   IYY=    77.490   IZZ=    96.482

 ATOM      ATOMIC                      COORDINATES (BOHR)
           CHARGE         X                   Y                   Z
 S          16.0     0.0000000000        0.0000000000       -1.0299929358
 O           8.0    -2.9411485214        0.0000000000        1.0294214298
 O           8.0     2.9411485214        0.0000000000        1.0294214298

          INTERNUCLEAR DISTANCES (ANGS.)
          ------------------------------

                1 S          2 O          3 O     

   1 S       0.0000000    1.9000000 *  1.9000000 *
   2 O       1.9000000 *  0.0000000    3.1127778  
   3 O       1.9000000 *  3.1127778    0.0000000  

  * ... LESS THAN  3.000


     ATOMIC BASIS SET
     ----------------
 THE CONTRACTED PRIMITIVE FUNCTIONS HAVE BEEN UNNORMALIZED
 THE CONTRACTED BASIS FUNCTIONS ARE NOW NORMALIZED TO UNITY

  SHELL TYPE  PRIMITIVE        EXPONENT          CONTRACTION COEFFICIENT(S)

 S         

      1   S       1         55510.0000000    0.000587229760
      1   S       2          8326.7000000    0.004532413947
      1   S       3          1895.6000000    0.023265261648
      1   S       4           536.7700000    0.089696133027
      1   S       5           174.6700000    0.254098332277
      1   S       6            62.5780000    0.438665087637
      1   S       7            23.5730000    0.314547135094
      1   S       8             5.8908000    0.032727897102

      2   S       9          8326.7000000   -0.000019755715
      2   S      10          1895.6000000   -0.000043822381
      2   S      11           536.7700000   -0.001730264906
      2   S      12           174.6700000   -0.009381263460
      2   S      13            62.5780000   -0.064050766303
      2   S      14            23.5730000   -0.082478179196
      2   S      15             5.8908000    0.478342956889
      2   S      16             2.1852000    0.626896670208

      3   S      17          1895.6000000    0.000016227260
      3   S      18           536.7700000    0.000191135619
      3   S      19           174.6700000    0.001952069674
      3   S      20            62.5780000    0.010578701087
      3   S      21            23.5730000    0.022164934551
      3   S      22             5.8908000   -0.184968323118
      3   S      23             2.1852000   -0.480920750976
      3   S      24             0.4528200    1.243822243872

      4   S      25             0.1620200    1.000000000000

      5   P      26           395.4500000    0.004642761329
      5   P      27            92.8340000    0.036023396489
      5   P      28            29.2660000    0.149058869978
      5   P      29            10.5950000    0.360033266263
      5   P      30             4.0272000    0.455756476221
      5   P      31             1.5484000    0.206167664178

      6   P      32            92.8340000    0.000169901442
      6   P      33            29.2660000   -0.002541839934
      6   P      34            10.5950000   -0.007867614595
      6   P      35             4.0272000   -0.037231009184
      6   P      36             1.5484000    0.161417246830
      6   P      37             0.4613400    0.902230419976

      7   P      38             0.1313100    1.000000000000

      8   D      39             0.5500000    1.000000000000

 O         

     15   S      40          2306.7000000    0.005424388755
     15   S      41           347.1500000    0.040474749465
     15   S      42            78.8900000    0.180219634554
     15   S      43            21.8760000    0.462370311787
     15   S      44             6.6646000    0.454888396263

     16   S      45           347.1500000   -0.000655003786
     16   S      46            78.8900000   -0.005362052952
     16   S      47            21.8760000   -0.074902158894
     16   S      48             6.6646000   -0.181442579655
     16   S      49             1.0669000    1.102006874042

     17   S      50             0.3070000    1.000000000000

     18   P      51            17.0220000    0.068979967443
     18   P      52             3.6838000    0.351985516325
     18   P      53             0.9923400    0.724036547822

     19   P      54             0.2448700    1.000000000000

     20   D      55             1.0000000    1.000000000000

 TOTAL NUMBER OF BASIS SET SHELLS             =   20
 NUMBER OF CARTESIAN GAUSSIAN BASIS FUNCTIONS =   49
 NOTE: THIS RUN WILL RESTRICT THE MO VARIATION SPACE TO SPHERICAL HARMONICS.
 THE NUMBER OF ORBITALS KEPT IN THE VARIATIONAL SPACE WILL BE PRINTED LATER.
 NUMBER OF ELECTRONS                          =   32
 CHARGE OF MOLECULE                           =    0
 SPIN MULTIPLICITY                            =    1
 NUMBER OF OCCUPIED ORBITALS (ALPHA)          =   16
 NUMBER OF OCCUPIED ORBITALS (BETA )          =   16
 TOTAL NUMBER OF ATOMS                        =    3
 THE NUCLEAR REPULSION ENERGY IS       82.1797748672

     LEBEDEV GRID-BASED DFT OPTIONS
     ------------------------------
     DFTTYP=PBE     
     NRAD  =      96     NLEB  =     302
     NRAD0 =      24     NLEB0 =     110
     SWOFF =    5.00E-03 (PURE SCF -> DFT)
     SWITCH=    3.00E-04 (COARSE -> TIGHT GRID)
     THRESH=    0.00E+00 GTHRE=    1.00E+00

 GRIMME'S EMPIRICAL DISPERSION CORRECTION= F

     $CONTRL OPTIONS
     ---------------
 SCFTYP=RHF          RUNTYP=ENERGY       EXETYP=RUN     
 MPLEVL=       0     CITYP =NONE         CCTYP =NONE         VBTYP =NONE    
 DFTTYP=PBE          TDDFT =NONE    
 MULT  =       1     ICHARG=       0     NZVAR =       0     COORD =ZMT     
 PP    =NONE         RELWFN=NONE         LOCAL =NONE         NUMGRD=       F
 ISPHER=       1     NOSYM =       0     MAXIT =      30     UNITS =ANGS    
 PLTORB=       F     MOLPLT=       F     AIMPAC=       F     FRIEND=        
 NPRINT=       7     IREST =       0     GEOM  =INPUT   
 NORMF =       0     NORMP =       0     ITOL  =      20     ICUT  =       9
 INTTYP=BEST         GRDTYP=BEST         QMTTOL= 1.0E-06

     $SYSTEM OPTIONS
     ---------------
  REPLICATED MEMORY=     1000000 WORDS (ON EVERY NODE).
 DISTRIBUTED MEMDDI=           0 MILLION WORDS IN AGGREGATE,
 MEMDDI DISTRIBUTED OVER   1 PROCESSORS IS           0 WORDS/PROCESSOR.
 TOTAL MEMORY REQUESTED ON EACH PROCESSOR=     1000000 WORDS.
 TIMLIM=      525600.00 MINUTES, OR     365.0 DAYS.
 PARALL= F  BALTYP=  DLB     KDIAG=    0  COREFL= F
 MXSEQ2=     300 MXSEQ3=     150

          ----------------
          PROPERTIES INPUT
          ----------------

     MOMENTS            FIELD           POTENTIAL          DENSITY
 IEMOM =       1   IEFLD =       0   IEPOT =       0   IEDEN =       0
 WHERE =COMASS     WHERE =NUCLEI     WHERE =NUCLEI     WHERE =NUCLEI  
 OUTPUT=BOTH       OUTPUT=BOTH       OUTPUT=BOTH       OUTPUT=BOTH    
 IEMINT=       0   IEFINT=       0                     IEDINT=       0
                                                       MORB  =       0
          EXTRAPOLATION IN EFFECT
          DIIS IN EFFECT
 ORBITAL PRINTING OPTION: NPREO=     1    49     2     1

     -------------------------------
     INTEGRAL TRANSFORMATION OPTIONS
     -------------------------------
     NWORD  =            0
     CUTOFF = 1.0E-09     MPTRAN =       0
     DIRTRF =       F     AOINTS =DUP     

          ----------------------
          INTEGRAL INPUT OPTIONS
          ----------------------
 NOPK  =       1 NORDER=       0 SCHWRZ=       F

   --- ENCODED Z MATRIX ---
 COORD  TYPE   I   J   K   L   M   N
    1      1    3   1
    2      1    2   1
    3      2    2   1   3

 THE DETERMINANT OF THE G MATRIX IS 10**(    -4)

 THE DETERMINANT OF THE G MATRIX IS 10**(    -4)
 * * * WARNING * * *
 YOUR B MATRIX HAS A SMALL DETERMINANT.
 THIS SUGGESTS YOU MAY HAVE BADLY CHOSEN COORDINATES.

     ------------------------------------------
     THE POINT GROUP IS CNV, NAXIS= 2, ORDER= 4
     ------------------------------------------

 -- VARIATIONAL SPACE WILL BE RESTRICTED TO PURE SPHERICAL HARMONICS ONLY --
 AFTER EXCLUDING CONTAMINANT COMBINATIONS FROM THE CARTESIAN GAUSSIAN BASIS
 SET, THE NUMBER OF SPHERICAL HARMONICS KEPT IN THE VARIATION SPACE IS   46

     DIMENSIONS OF THE SYMMETRY SUBSPACES ARE
 A1  =   19     A2  =    5     B1  =   14     B2  =    8

 ..... DONE SETTING UP THE RUN .....
 STEP CPU TIME =     0.01 TOTAL CPU TIME =        0.0 (    0.0 MIN)
 TOTAL WALL CLOCK TIME=        0.0 SECONDS, CPU UTILIZATION IS  50.00%

          ********************
          1 ELECTRON INTEGRALS
          ********************
 ...... END OF ONE-ELECTRON INTEGRALS ......
 STEP CPU TIME =     0.00 TOTAL CPU TIME =        0.0 (    0.0 MIN)
 TOTAL WALL CLOCK TIME=        0.0 SECONDS, CPU UTILIZATION IS  50.00%

          -------------
          GUESS OPTIONS
          -------------
          GUESS =HUCKEL            NORB  =       0          NORDER=       0
          MIX   =       F          PRTMO =       F          PUNMO =       F
          TOLZ  = 1.0E-08          TOLE  = 1.0E-05
          SYMDEN=       F          PURIFY=       F

 INITIAL GUESS ORBITALS GENERATED BY HUCKEL   ROUTINE.
 HUCKEL GUESS REQUIRES     21583 WORDS.

 STATISTICS FOR GENERATION OF SYMMETRY ORBITAL -Q- MATRIX
 NUMBER OF CARTESIAN ATOMIC ORBITALS=         49
 NUMBER OF SPHERICAL CONTAMINANTS DROPPED=     3
 NUMBER OF LINEARLY DEPENDENT MOS DROPPED=     0
 TOTAL NUMBER OF MOS IN VARIATION SPACE=      46

 SYMMETRIES FOR INITIAL GUESS ORBITALS FOLLOW.   BOTH SET(S).
    16 ORBITALS ARE OCCUPIED (    7 CORE ORBITALS).
     8=?A1      9=?B1     10=?A1     11=B1      12=B2      13=A1      14=A2  
    15=B1      16=A1      17=B2      18=A1      19=B1      20=A1      21=A1  
    22=A1      23=A1      24=A1      25=A1      26=A1  
 ...... END OF INITIAL ORBITAL SELECTION ......
 STEP CPU TIME =     0.01 TOTAL CPU TIME =        0.0 (    0.0 MIN)
 TOTAL WALL CLOCK TIME=        0.0 SECONDS, CPU UTILIZATION IS  66.67%

                    ----------------------
                    AO INTEGRAL TECHNOLOGY
                    ----------------------
     S,P,L SHELL ROTATED AXIS INTEGRALS, REPROGRAMMED BY
        KAZUYA ISHIMURA (IMS) AND JOSE SIERRA (SYNSTAR).
     S,P,D,L SHELL ROTATED AXIS INTEGRALS PROGRAMMED BY
        KAZUYA ISHIMURA (INSTITUTE FOR MOLECULAR SCIENCE).
     S,P,D,F,G SHELL TO TOTAL QUARTET ANGULAR MOMENTUM SUM 5,
        ERIC PROGRAM BY GRAHAM FLETCHER (ELORET AND NASA ADVANCED
        SUPERCOMPUTING DIVISION, AMES RESEARCH CENTER).
     S,P,D,F,G,L SHELL GENERAL RYS QUADRATURE PROGRAMMED BY
        MICHEL DUPUIS (PACIFIC NORTHWEST NATIONAL LABORATORY).

          --------------------
          2 ELECTRON INTEGRALS
          --------------------

 THE -PK- OPTION IS OFF, THE INTEGRALS ARE NOT IN SUPERMATRIX FORM.
 STORING   15000 INTEGRALS/RECORD ON DISK, USING 12 BYTES/INTEGRAL.
 TWO ELECTRON INTEGRAL EVALUATION REQUIRES   90606 WORDS OF MEMORY.
 II,JST,KST,LST =  1  1  1  1 NREC =         1 INTLOC =    1
 II,JST,KST,LST =  2  1  1  1 NREC =         1 INTLOC =    2
 II,JST,KST,LST =  3  1  1  1 NREC =         1 INTLOC =    7
 II,JST,KST,LST =  4  1  1  1 NREC =         1 INTLOC =   22
 II,JST,KST,LST =  5  1  1  1 NREC =         1 INTLOC =   56
 II,JST,KST,LST =  6  1  1  1 NREC =         1 INTLOC =  125
 II,JST,KST,LST =  7  1  1  1 NREC =         1 INTLOC =  329
 II,JST,KST,LST =  8  1  1  1 NREC =         1 INTLOC =  776
 II,JST,KST,LST =  9  1  1  1 NREC =         1 INTLOC = 2864
 II,JST,KST,LST = 10  1  1  1 NREC =         1 INTLOC = 2864
 II,JST,KST,LST = 11  1  1  1 NREC =         1 INTLOC = 2864
 II,JST,KST,LST = 12  1  1  1 NREC =         1 INTLOC = 2864
 II,JST,KST,LST = 13  1  1  1 NREC =         1 INTLOC = 2864
 II,JST,KST,LST = 14  1  1  1 NREC =         1 INTLOC = 2864
 II,JST,KST,LST = 15  1  1  1 NREC =         1 INTLOC = 2864
 II,JST,KST,LST = 16  1  1  1 NREC =         1 INTLOC = 4786
 II,JST,KST,LST = 17  1  1  1 NREC =         1 INTLOC = 7813
 II,JST,KST,LST = 18  1  1  1 NREC =         1 INTLOC =12148
 II,JST,KST,LST = 19  1  1  1 NREC =         2 INTLOC =13193
 II,JST,KST,LST = 20  1  1  1 NREC =         4 INTLOC =13424
 TOTAL NUMBER OF NONZERO TWO-ELECTRON INTEGRALS =              160102
         11 INTEGRAL RECORDS WERE STORED ON DISK FILE  8.
  ...... END OF TWO-ELECTRON INTEGRALS .....
 STEP CPU TIME =     0.15 TOTAL CPU TIME =        0.2 (    0.0 MIN)
 TOTAL WALL CLOCK TIME=        0.2 SECONDS, CPU UTILIZATION IS  94.44%

          --------------------------
               R-PBE SCF CALCULATION
          --------------------------

     NUCLEAR ENERGY =        82.1797748672
     MAXIT =   30     NPUNCH=    2
     EXTRAP=T  DAMP=F  SHIFT=F  RSTRCT=F  DIIS=T  DEM=F  SOSCF=F
         DENSITY MATRIX CONVERGENCE THRESHOLD=  1.00E-05
     COARSE -> FINE DFT GRID SWITCH THRESHOLD=  3.00E-04 (SWITCH IN $DFT)
                   HF -> DFT SWITCH THRESHOLD=  5.00E-03 (SWOFF IN $DFT)
     MEMORY REQUIRED FOR RHF ITERS=    183108 WORDS.

 DFT CODE IS SWITCHING FROM THE FINE GRID NRAD= 96,  NLEB=  302
                      TO THE COARSE GRID NRAD0= 24, NLEB0=  110

     EXCHANGE FUNCTIONAL   =PBE       
     CORRELATION FUNCTIONAL=PBE       
     DFT THRESHOLD         =.460E-07
     GRID CHANGE THRESHOLD =.300E-03
 FOR AN EULER-MACLAURIN QUADRATURE USING  96 RADIAL POINTS:
 SMALLEST GAUSSIAN PRIMITIVE EXPONENT=        0.1313100000 OF TYPE -P-
 ON ATOM NUMBER   1 HAS RADIAL NORMALIZATION=  1.000000
  LARGEST GAUSSIAN PRIMITIVE EXPONENT=    55510.0000000000 OF TYPE -S-
 ON ATOM NUMBER   1 HAS RADIAL NORMALIZATION=  0.999999
 DFT IS SWITCHED OFF, PERFORMING PURE SCF UNTIL SWOFF THRESHOLD IS REACHED.

 ITER EX DEM     TOTAL ENERGY        E CHANGE  DENSITY CHANGE    DIIS ERROR
   1  0  0     -545.6944726006  -545.6944726006   0.743745764   0.903587614
   2  1  0     -545.5958418821     0.0986307185   0.898457337   0.709974468
   3  2  0     -544.8586766999     0.7371651821   1.267963894   0.734005079
   4  3  0     -542.0750602410     2.7836164589   1.426177213   1.606911051
   5  0  0     -541.5849407745     0.4901194665   0.800185507   1.108225158
          * * *   INITIATING DIIS PROCEDURE   * * *
   6  1  0     -546.5383054020    -4.9533646275   0.560712232   0.255318330
   7  2  0     -546.2746477192     0.2636576829   0.346483785   0.456485413
   8  3  0     -546.8345499125    -0.5599021933   0.033196805   0.043433661
   9  4  0     -546.8471505983    -0.0126006858   0.030513729   0.023078601
  10  5  0     -546.8509198613    -0.0037692630   0.018571348   0.008060634
  11  6  0     -546.8520223267    -0.0011024654   0.025741559   0.006903429
  12  7  0     -546.8529645403    -0.0009422136   0.030233790   0.004553947
  13  8  0     -546.8534793193    -0.0005147790   0.005917148   0.001542141
  14  9  0     -546.8535067311    -0.0000274118   0.001174224   0.000688969
 CONVERGED TO SWOFF, SO DFT CALCULATION IS NOW SWITCHED ON.
          * * *   INITIATING DIIS PROCEDURE   * * *
  15 10  0     -548.0414632210    -1.1879564900   0.573098414   0.098954781
  16 11  0     -548.0161227615     0.0253404596   0.448061750   0.199495938
  17 12  0     -547.9600476941     0.0560750673   0.149595287   0.301058580
  18 13  0     -548.1349823734    -0.1749346793   0.029440078   0.020357611
  19 14  0     -548.1366101224    -0.0016277490   0.003323835   0.005119227
  20 15  0     -548.1366694931    -0.0000593707   0.000549114   0.000490318
  21 16  0     -548.1366697887    -0.0000002957   0.000229913   0.000333957
 DFT CODE IS SWITCHING BACK TO THE FINE GRID
          * * *   INITIATING DIIS PROCEDURE   * * *
  22 17  0     -548.1181957160     0.0184740728   0.005497297   0.007580156
  23 18  0     -548.1183148539    -0.0001191379   0.011622793   0.003622000
  24 19  0     -548.1180051248     0.0003097290   0.011728425   0.013101416
  25 20  0     -548.1183384466    -0.0003333217   0.001872204   0.001609457
  26 21  0     -548.1183460988    -0.0000076523   0.000203214   0.000143963
  27 22  0     -548.1183461864    -0.0000000875   0.000013718   0.000008199
  28 23  0     -548.1183461867    -0.0000000003   0.000001956   0.000001886
  29 24  0     -548.1183461867     0.0000000000   0.000000469   0.000000227

          -----------------
          DENSITY CONVERGED
          -----------------
     TIME TO FORM FOCK OPERATORS=       4.2 SECONDS (       0.1 SEC/ITER)
     TIME TO SOLVE SCF EQUATIONS=       0.0 SECONDS (       0.0 SEC/ITER)

 FINAL R-PBE ENERGY IS     -548.1183461867 AFTER  29 ITERATIONS
 DFT EXCHANGE + CORRELATION ENERGY =       -42.1206140676
 TOTAL ELECTRON NUMBER             =        32.0000350048

          ------------
          EIGENVECTORS
          ------------

                      1          2          3          4          5
                  -88.2234   -18.8354   -18.8353    -7.8446    -5.8658
                     A1         A1         B1         A1         B1  
    1  S  1  S    1.002978  -0.000086   0.000000  -0.274125   0.000000
    2  S  1  S   -0.010257  -0.001188   0.000000   1.039703   0.000000
    3  S  1  S    0.001806  -0.002408   0.000000   0.040647   0.000000
    4  S  1  S   -0.001056   0.006700   0.000000  -0.013323   0.000000
    5  S  1  X    0.000000   0.000000   0.000103   0.000000   0.996888
    6  S  1  Y    0.000000   0.000000   0.000000   0.000000   0.000000
    7  S  1  Z    0.000051  -0.000081   0.000000   0.006899   0.000000
    8  S  1  X    0.000000   0.000000  -0.000376   0.000000   0.008926
    9  S  1  Y    0.000000   0.000000   0.000000   0.000000   0.000000
   10  S  1  Z    0.000008   0.000247   0.000000   0.000394   0.000000
   11  S  1  X    0.000000   0.000000  -0.003619   0.000000  -0.000111
   12  S  1  Y    0.000000   0.000000   0.000000   0.000000   0.000000
   13  S  1  Z   -0.000112   0.003238   0.000000  -0.001004   0.000000
   14  S  1 XX   -0.000022   0.000973   0.000000   0.000018   0.000000
   15  S  1 YY    0.000027  -0.001085   0.000000   0.000079   0.000000
   16  S  1 ZZ   -0.000005   0.000112   0.000000  -0.000096   0.000000
   17  S  1 XY    0.000000   0.000000   0.000000   0.000000   0.000000
   18  S  1 XZ    0.000000   0.000000  -0.001373   0.000000   0.000326
   19  S  1 YZ    0.000000   0.000000   0.000000   0.000000   0.000000
   20  O  2  S   -0.000004   0.703241   0.703216  -0.000011   0.000013
   21  O  2  S   -0.000038   0.024964   0.024645  -0.000197   0.000019
   22  O  2  S    0.000157  -0.010234  -0.009500   0.001276   0.000050
   23  O  2  X    0.000006   0.000719   0.000568   0.000005   0.000035
   24  O  2  Y    0.000000   0.000000   0.000000   0.000000   0.000000
   25  O  2  Z   -0.000010  -0.000396  -0.000513  -0.000058  -0.000026
   26  O  2  X    0.000047  -0.002397  -0.001392   0.000231  -0.000001
   27  O  2  Y    0.000000   0.000000   0.000000   0.000000   0.000000
   28  O  2  Z   -0.000006   0.001065   0.001479   0.000080  -0.000015
   29  O  2 XX   -0.000012  -0.000251  -0.000072  -0.000225  -0.000027
   30  O  2 YY    0.000015   0.000185   0.000147   0.000250   0.000019
   31  O  2 ZZ   -0.000003   0.000066  -0.000075  -0.000024   0.000008
   32  O  2 XY    0.000000   0.000000   0.000000   0.000000   0.000000
   33  O  2 XZ    0.000027   0.000227   0.000223   0.000417   0.000026
   34  O  2 YZ    0.000000   0.000000   0.000000   0.000000   0.000000
   35  O  3  S   -0.000004   0.703241  -0.703216  -0.000011  -0.000013
   36  O  3  S   -0.000038   0.024964  -0.024645  -0.000197  -0.000019
   37  O  3  S    0.000157  -0.010234   0.009500   0.001276  -0.000050
   38  O  3  X   -0.000006  -0.000719   0.000568  -0.000005   0.000035
   39  O  3  Y    0.000000   0.000000   0.000000   0.000000   0.000000
   40  O  3  Z   -0.000010  -0.000396   0.000513  -0.000058   0.000026
   41  O  3  X   -0.000047   0.002397  -0.001392  -0.000231  -0.000001
   42  O  3  Y    0.000000   0.000000   0.000000   0.000000   0.000000
   43  O  3  Z   -0.000006   0.001065  -0.001479   0.000080   0.000015
   44  O  3 XX   -0.000012  -0.000251   0.000072  -0.000225   0.000027
   45  O  3 YY    0.000015   0.000185  -0.000147   0.000250  -0.000019
   46  O  3 ZZ   -0.000003   0.000066   0.000075  -0.000024  -0.000008
   47  O  3 XY    0.000000   0.000000   0.000000   0.000000   0.000000
   48  O  3 XZ   -0.000027  -0.000227   0.000223  -0.000417   0.000026
   49  O  3 YZ    0.000000   0.000000   0.000000   0.000000   0.000000

                      6          7          8          9         10
                   -5.8627    -5.8622    -0.8999    -0.8656    -0.6721
                     B2         A1         A1         B1         A1  
    1  S  1  S    0.000000   0.001841   0.037626   0.000000   0.077970
    2  S  1  S    0.000000  -0.007253  -0.111375   0.000000  -0.224269
    3  S  1  S    0.000000  -0.000523   0.220991   0.000000   0.482654
    4  S  1  S    0.000000   0.000159   0.183425   0.000000   0.462866
    5  S  1  X    0.000000   0.000000   0.000000   0.055124   0.000000
    6  S  1  Y    0.996933   0.000000   0.000000   0.000000   0.000000
    7  S  1  Z    0.000000   0.996922  -0.033400   0.000000   0.017733
    8  S  1  X    0.000000   0.000000   0.000000  -0.113281   0.000000
    9  S  1  Y    0.008812   0.000000   0.000000   0.000000   0.000000
   10  S  1  Z    0.000000   0.008756   0.068770   0.000000  -0.035494
   11  S  1  X    0.000000   0.000000   0.000000  -0.031652   0.000000
   12  S  1  Y   -0.000171   0.000000   0.000000   0.000000   0.000000
   13  S  1  Z    0.000000  -0.000136   0.014615   0.000000  -0.032858
   14  S  1 XX    0.000000  -0.000155   0.018478   0.000000  -0.004553
   15  S  1 YY    0.000000  -0.000154  -0.017717   0.000000   0.006089
   16  S  1 ZZ    0.000000   0.000310  -0.000761   0.000000  -0.001536
   17  S  1 XY    0.000000   0.000000   0.000000   0.000000   0.000000
   18  S  1 XZ    0.000000   0.000000   0.000000  -0.032474   0.000000
   19  S  1 YZ    0.000260   0.000000   0.000000   0.000000   0.000000
   20  O  2  S    0.000000  -0.000012  -0.137642  -0.156826   0.084966
   21  O  2  S    0.000000  -0.000051   0.276993   0.318953  -0.178667
   22  O  2  S    0.000000   0.000029   0.348522   0.406634  -0.255110
   23  O  2  X    0.000000  -0.000025   0.051915   0.040339   0.061996
   24  O  2  Y    0.000003   0.000000   0.000000   0.000000   0.000000
   25  O  2  Z    0.000000   0.000029  -0.035927  -0.032175  -0.044806
   26  O  2  X    0.000000   0.000017   0.028108   0.023257   0.029026
   27  O  2  Y   -0.000042   0.000000   0.000000   0.000000   0.000000
   28  O  2  Z    0.000000  -0.000082  -0.020620  -0.019380  -0.018817
   29  O  2 XX    0.000000   0.000005   0.004937   0.003221   0.002753
   30  O  2 YY    0.000000  -0.000029  -0.003186  -0.001742  -0.003868
   31  O  2 ZZ    0.000000   0.000024  -0.001752  -0.001478   0.001115
   32  O  2 XY   -0.000025   0.000000   0.000000   0.000000   0.000000
   33  O  2 XZ    0.000000  -0.000059  -0.009024  -0.007914  -0.003823
   34  O  2 YZ    0.000016   0.000000   0.000000   0.000000   0.000000
   35  O  3  S    0.000000  -0.000012  -0.137642   0.156826   0.084966
   36  O  3  S    0.000000  -0.000051   0.276993  -0.318953  -0.178667
   37  O  3  S    0.000000   0.000029   0.348522  -0.406634  -0.255110
   38  O  3  X    0.000000   0.000025  -0.051915   0.040339  -0.061996
   39  O  3  Y    0.000003   0.000000   0.000000   0.000000   0.000000
   40  O  3  Z    0.000000   0.000029  -0.035927   0.032175  -0.044806
   41  O  3  X    0.000000  -0.000017  -0.028108   0.023257  -0.029026
   42  O  3  Y   -0.000042   0.000000   0.000000   0.000000   0.000000
   43  O  3  Z    0.000000  -0.000082  -0.020620   0.019380  -0.018817
   44  O  3 XX    0.000000   0.000005   0.004937  -0.003221   0.002753
   45  O  3 YY    0.000000  -0.000029  -0.003186   0.001742  -0.003868
   46  O  3 ZZ    0.000000   0.000024  -0.001752   0.001478   0.001115
   47  O  3 XY    0.000025   0.000000   0.000000   0.000000   0.000000
   48  O  3 XZ    0.000000   0.000059   0.009024  -0.007914   0.003823
   49  O  3 YZ    0.000016   0.000000   0.000000   0.000000   0.000000

                     11         12         13         14         15
                   -0.4147    -0.3881    -0.3695    -0.2984    -0.2860
                     B1         A1         B2         A2         A1  
    1  S  1  S    0.000000  -0.010767   0.000000   0.000000   0.011436
    2  S  1  S    0.000000   0.046074   0.000000   0.000000  -0.042876
    3  S  1  S    0.000000  -0.048932   0.000000   0.000000   0.061546
    4  S  1  S    0.000000  -0.189151   0.000000   0.000000   0.179363
    5  S  1  X   -0.190677   0.000000   0.000000   0.000000   0.000000
    6  S  1  Y    0.000000   0.000000  -0.218282   0.000000   0.000000
    7  S  1  Z    0.000000  -0.213150   0.000000   0.000000   0.029186
    8  S  1  X    0.449400   0.000000   0.000000   0.000000   0.000000
    9  S  1  Y    0.000000   0.000000   0.516054   0.000000   0.000000
   10  S  1  Z    0.000000   0.502930   0.000000   0.000000  -0.074105
   11  S  1  X    0.195497   0.000000   0.000000   0.000000   0.000000
   12  S  1  Y    0.000000   0.000000   0.354812   0.000000   0.000000
   13  S  1  Z    0.000000   0.281577   0.000000   0.000000   0.011780
   14  S  1 XX    0.000000   0.004334   0.000000   0.000000  -0.077220
   15  S  1 YY    0.000000  -0.019790   0.000000   0.000000   0.025491
   16  S  1 ZZ    0.000000   0.015456   0.000000   0.000000   0.051729
   17  S  1 XY    0.000000   0.000000   0.000000  -0.057253   0.000000
   18  S  1 XZ    0.035554   0.000000   0.000000   0.000000   0.000000
   19  S  1 YZ    0.000000   0.000000   0.021391   0.000000   0.000000
   20  O  2  S   -0.043996   0.025722   0.000000   0.000000  -0.001229
   21  O  2  S    0.093862  -0.055478   0.000000   0.000000   0.007498
   22  O  2  S    0.163543  -0.098707   0.000000   0.000000  -0.017484
   23  O  2  X   -0.245783   0.294224   0.000000   0.000000   0.069466
   24  O  2  Y    0.000000   0.000000   0.270456   0.479375   0.000000
   25  O  2  Z    0.236562  -0.033908   0.000000   0.000000   0.465633
   26  O  2  X   -0.151712   0.190103   0.000000   0.000000   0.044484
   27  O  2  Y    0.000000   0.000000   0.170928   0.336136   0.000000
   28  O  2  Z    0.147520  -0.023345   0.000000   0.000000   0.337301
   29  O  2 XX   -0.003386   0.011671   0.000000   0.000000   0.005462
   30  O  2 YY    0.007314  -0.005661   0.000000   0.000000   0.002900
   31  O  2 ZZ   -0.003928  -0.006010   0.000000   0.000000  -0.008362
   32  O  2 XY    0.000000   0.000000   0.009696   0.008259   0.000000
   33  O  2 XZ    0.012009  -0.005443   0.000000   0.000000   0.007481
   34  O  2 YZ    0.000000   0.000000  -0.006939  -0.006781   0.000000
   35  O  3  S    0.043996   0.025722   0.000000   0.000000  -0.001229
   36  O  3  S   -0.093862  -0.055478   0.000000   0.000000   0.007498
   37  O  3  S   -0.163543  -0.098707   0.000000   0.000000  -0.017484
   38  O  3  X   -0.245783  -0.294224   0.000000   0.000000  -0.069466
   39  O  3  Y    0.000000   0.000000   0.270456  -0.479375   0.000000
   40  O  3  Z   -0.236562  -0.033908   0.000000   0.000000   0.465633
   41  O  3  X   -0.151712  -0.190103   0.000000   0.000000  -0.044484
   42  O  3  Y    0.000000   0.000000   0.170928  -0.336136   0.000000
   43  O  3  Z   -0.147520  -0.023345   0.000000   0.000000   0.337301
   44  O  3 XX    0.003386   0.011671   0.000000   0.000000   0.005462
   45  O  3 YY   -0.007314  -0.005661   0.000000   0.000000   0.002900
   46  O  3 ZZ    0.003928  -0.006010   0.000000   0.000000  -0.008362
   47  O  3 XY    0.000000   0.000000  -0.009696   0.008259   0.000000
   48  O  3 XZ    0.012009   0.005443   0.000000   0.000000  -0.007481
   49  O  3 YZ    0.000000   0.000000  -0.006939   0.006781   0.000000

                     16         17         18         19         20
                   -0.2798    -0.2469    -0.1568    -0.1367     0.3222
                     B1         B2         A1         B1         B1  
    1  S  1  S    0.000000   0.000000   0.026339   0.000000   0.000000
    2  S  1  S    0.000000   0.000000  -0.065829   0.000000   0.000000
    3  S  1  S    0.000000   0.000000   0.188948   0.000000   0.000000
    4  S  1  S    0.000000   0.000000   0.278709   0.000000   0.000000
    5  S  1  X   -0.019948   0.000000   0.000000  -0.221714   0.265310
    6  S  1  Y    0.000000  -0.188028   0.000000   0.000000   0.000000
    7  S  1  Z    0.000000   0.000000  -0.196598   0.000000   0.000000
    8  S  1  X    0.041093   0.000000   0.000000   0.557609  -1.034008
    9  S  1  Y    0.000000   0.465513   0.000000   0.000000   0.000000
   10  S  1  Z    0.000000   0.000000   0.495856   0.000000   0.000000
   11  S  1  X    0.119106   0.000000   0.000000   0.605747   1.400666
   12  S  1  Y    0.000000   0.327608   0.000000   0.000000   0.000000
   13  S  1  Z    0.000000   0.000000   0.482142   0.000000   0.000000
   14  S  1 XX    0.000000   0.000000  -0.052478   0.000000   0.000000
   15  S  1 YY    0.000000   0.000000   0.077575   0.000000   0.000000
   16  S  1 ZZ    0.000000   0.000000  -0.025097   0.000000   0.000000
   17  S  1 XY    0.000000   0.000000   0.000000   0.000000   0.000000
   18  S  1 XZ   -0.051574   0.000000   0.000000  -0.118302  -0.218721
   19  S  1 YZ    0.000000  -0.035585   0.000000   0.000000   0.000000
   20  O  2  S   -0.002904   0.000000   0.027031  -0.030660  -0.013068
   21  O  2  S    0.001871   0.000000  -0.052287   0.054684  -0.033594
   22  O  2  S    0.038117   0.000000  -0.176591   0.229120   0.390908
   23  O  2  X    0.371413   0.000000  -0.393857   0.179315  -0.207589
   24  O  2  Y    0.000000  -0.406612   0.000000   0.000000   0.000000
   25  O  2  Z    0.305014   0.000000   0.069790  -0.316124   0.031449
   26  O  2  X    0.263813   0.000000  -0.324965   0.171133   0.150605
   27  O  2  Y    0.000000  -0.294872   0.000000   0.000000   0.000000
   28  O  2  Z    0.199683   0.000000   0.059981  -0.263351  -0.163586
   29  O  2 XX    0.008952   0.000000   0.002928   0.002706   0.026144
   30  O  2 YY   -0.000853   0.000000   0.000272   0.000782  -0.021401
   31  O  2 ZZ   -0.008100   0.000000  -0.003200  -0.003488  -0.004743
   32  O  2 XY    0.000000  -0.001412   0.000000   0.000000   0.000000
   33  O  2 XZ   -0.000277   0.000000   0.001023   0.001020  -0.035336
   34  O  2 YZ    0.000000   0.001077   0.000000   0.000000   0.000000
   35  O  3  S    0.002904   0.000000   0.027031   0.030660   0.013068
   36  O  3  S   -0.001871   0.000000  -0.052287  -0.054684   0.033594
   37  O  3  S   -0.038117   0.000000  -0.176591  -0.229120  -0.390908
   38  O  3  X    0.371413   0.000000   0.393857   0.179315  -0.207589
   39  O  3  Y    0.000000  -0.406612   0.000000   0.000000   0.000000
   40  O  3  Z   -0.305014   0.000000   0.069790   0.316124  -0.031449
   41  O  3  X    0.263813   0.000000   0.324965   0.171133   0.150605
   42  O  3  Y    0.000000  -0.294872   0.000000   0.000000   0.000000
   43  O  3  Z   -0.199683   0.000000   0.059981   0.263351   0.163586
   44  O  3 XX   -0.008952   0.000000   0.002928  -0.002706  -0.026144
   45  O  3 YY    0.000853   0.000000   0.000272  -0.000782   0.021401
   46  O  3 ZZ    0.008100   0.000000  -0.003200   0.003488   0.004743
   47  O  3 XY    0.000000   0.001412   0.000000   0.000000   0.000000
   48  O  3 XZ   -0.000277   0.000000  -0.001023   0.001020  -0.035336
   49  O  3 YZ    0.000000   0.001077   0.000000   0.000000   0.000000

                     21         22         23         24         25
                    0.3511     0.3670     0.4087     0.4666     0.4704
                     A1         B2         A1         A2         A1  
    1  S  1  S    0.015286   0.000000  -0.099521   0.000000   0.020215
    2  S  1  S   -0.004843   0.000000  -0.367289   0.000000   0.078218
    3  S  1  S    0.159806   0.000000  -1.548949   0.000000   0.319518
    4  S  1  S    0.057004   0.000000   1.854676   0.000000  -0.396509
    5  S  1  X    0.000000   0.000000   0.000000   0.000000   0.000000
    6  S  1  Y    0.000000   0.297598   0.000000   0.000000   0.000000
    7  S  1  Z    0.280342   0.000000  -0.008710   0.000000   0.032131
    8  S  1  X    0.000000   0.000000   0.000000   0.000000   0.000000
    9  S  1  Y    0.000000  -1.146982   0.000000   0.000000   0.000000
   10  S  1  Z   -1.088559   0.000000   0.016793   0.000000  -0.111603
   11  S  1  X    0.000000   0.000000   0.000000   0.000000   0.000000
   12  S  1  Y    0.000000   1.211373   0.000000   0.000000   0.000000
   13  S  1  Z    1.325063   0.000000   0.178911   0.000000   0.000145
   14  S  1 XX   -0.018589   0.000000  -0.444735   0.000000  -0.449400
   15  S  1 YY    0.163490   0.000000   0.389124   0.000000  -0.415787
   16  S  1 ZZ   -0.144901   0.000000   0.055610   0.000000   0.865187
   17  S  1 XY    0.000000   0.000000   0.000000   0.888154   0.000000
   18  S  1 XZ    0.000000   0.000000   0.000000   0.000000   0.000000
   19  S  1 YZ    0.000000  -0.122539   0.000000   0.000000   0.000000
   20  O  2  S    0.011511   0.000000   0.016481   0.000000  -0.006835
   21  O  2  S    0.013272   0.000000  -0.035505   0.000000   0.025970
   22  O  2  S   -0.268506   0.000000  -0.204192   0.000000   0.035927
   23  O  2  X    0.059748   0.000000  -0.001245   0.000000  -0.162933
   24  O  2  Y    0.000000  -0.092092   0.000000   0.284799   0.000000
   25  O  2  Z   -0.122227   0.000000  -0.140415   0.000000  -0.241780
   26  O  2  X   -0.192651   0.000000  -0.136408   0.000000   0.160386
   27  O  2  Y    0.000000  -0.073927   0.000000  -0.194606   0.000000
   28  O  2  Z    0.029937   0.000000   0.154041   0.000000   0.130457
   29  O  2 XX   -0.016578   0.000000  -0.008405   0.000000   0.036320
   30  O  2 YY    0.014883   0.000000   0.024254   0.000000  -0.006234
   31  O  2 ZZ    0.001695   0.000000  -0.015849   0.000000  -0.030087
   32  O  2 XY    0.000000  -0.004560   0.000000  -0.032208   0.000000
   33  O  2 XZ    0.018792   0.000000   0.039078   0.000000   0.015098
   34  O  2 YZ    0.000000   0.001908   0.000000   0.029525   0.000000
   35  O  3  S    0.011511   0.000000   0.016481   0.000000  -0.006835
   36  O  3  S    0.013272   0.000000  -0.035505   0.000000   0.025970
   37  O  3  S   -0.268506   0.000000  -0.204192   0.000000   0.035927
   38  O  3  X   -0.059748   0.000000   0.001245   0.000000   0.162933
   39  O  3  Y    0.000000  -0.092092   0.000000  -0.284799   0.000000
   40  O  3  Z   -0.122227   0.000000  -0.140415   0.000000  -0.241780
   41  O  3  X    0.192651   0.000000   0.136408   0.000000  -0.160386
   42  O  3  Y    0.000000  -0.073927   0.000000   0.194606   0.000000
   43  O  3  Z    0.029937   0.000000   0.154041   0.000000   0.130457
   44  O  3 XX   -0.016578   0.000000  -0.008405   0.000000   0.036320
   45  O  3 YY    0.014883   0.000000   0.024254   0.000000  -0.006234
   46  O  3 ZZ    0.001695   0.000000  -0.015849   0.000000  -0.030087
   47  O  3 XY    0.000000   0.004560   0.000000  -0.032208   0.000000
   48  O  3 XZ   -0.018792   0.000000  -0.039078   0.000000  -0.015098
   49  O  3 YZ    0.000000   0.001908   0.000000  -0.029525   0.000000

                     26         27         28         29         30
                    0.4835     0.6211     0.6394     0.7940     0.7945
                     B2         A1         B1         A1         A2  
    1  S  1  S    0.000000  -0.060466   0.000000  -0.013188   0.000000
    2  S  1  S    0.000000  -0.275962   0.000000   0.014113   0.000000
    3  S  1  S    0.000000  -1.011619   0.000000  -0.134379   0.000000
    4  S  1  S    0.000000   1.404763   0.000000  -0.298557   0.000000
    5  S  1  X    0.000000   0.000000   0.063023   0.000000   0.000000
    6  S  1  Y    0.028778   0.000000   0.000000   0.000000   0.000000
    7  S  1  Z    0.000000   0.039104   0.000000   0.037860   0.000000
    8  S  1  X    0.000000   0.000000  -0.291942   0.000000   0.000000
    9  S  1  Y   -0.104285   0.000000   0.000000   0.000000   0.000000
   10  S  1  Z    0.000000  -0.192082   0.000000  -0.160772   0.000000
   11  S  1  X    0.000000   0.000000   0.723954   0.000000   0.000000
   12  S  1  Y    0.050409   0.000000   0.000000   0.000000   0.000000
   13  S  1  Z    0.000000   0.541567   0.000000  -0.263792   0.000000
   14  S  1 XX    0.000000   0.660971   0.000000   0.232147   0.000000
   15  S  1 YY    0.000000  -0.784307   0.000000   0.088629   0.000000
   16  S  1 ZZ    0.000000   0.123336   0.000000  -0.320776   0.000000
   17  S  1 XY    0.000000   0.000000   0.000000   0.000000   0.473538
   18  S  1 XZ    0.000000   0.000000   0.956317   0.000000   0.000000
   19  S  1 YZ    0.926993   0.000000   0.000000   0.000000   0.000000
   20  O  2  S    0.000000   0.049249  -0.048203  -0.019564   0.000000
   21  O  2  S    0.000000  -0.278859   0.277581   0.172326   0.000000
   22  O  2  S    0.000000  -0.119161   0.087499  -0.041826   0.000000
   23  O  2  X    0.000000  -0.034389   0.063135  -0.590239   0.000000
   24  O  2  Y   -0.227593   0.000000   0.000000   0.000000  -0.578684
   25  O  2  Z    0.000000   0.051866  -0.020549  -0.043849   0.000000
   26  O  2  X    0.000000  -0.289654   0.211448   0.823590   0.000000
   27  O  2  Y    0.159701   0.000000   0.000000   0.000000   0.724301
   28  O  2  Z    0.000000   0.131165  -0.206677   0.031032   0.000000
   29  O  2 XX    0.000000  -0.004455  -0.031926  -0.035127   0.000000
   30  O  2 YY    0.000000  -0.010605   0.016125   0.008706   0.000000
   31  O  2 ZZ    0.000000   0.015060   0.015802   0.026421   0.000000
   32  O  2 XY    0.030572   0.000000   0.000000   0.000000  -0.026386
   33  O  2 XZ    0.000000  -0.006983   0.028485   0.005667   0.000000
   34  O  2 YZ   -0.010913   0.000000   0.000000   0.000000   0.021826
   35  O  3  S    0.000000   0.049249   0.048203  -0.019564   0.000000
   36  O  3  S    0.000000  -0.278859  -0.277581   0.172326   0.000000
   37  O  3  S    0.000000  -0.119161  -0.087499  -0.041826   0.000000
   38  O  3  X    0.000000   0.034389   0.063135   0.590239   0.000000
   39  O  3  Y   -0.227593   0.000000   0.000000   0.000000   0.578684
   40  O  3  Z    0.000000   0.051866   0.020549  -0.043849   0.000000
   41  O  3  X    0.000000   0.289654   0.211448  -0.823590   0.000000
   42  O  3  Y    0.159701   0.000000   0.000000   0.000000  -0.724301
   43  O  3  Z    0.000000   0.131165   0.206677   0.031032   0.000000
   44  O  3 XX    0.000000  -0.004455   0.031926  -0.035127   0.000000
   45  O  3 YY    0.000000  -0.010605  -0.016125   0.008706   0.000000
   46  O  3 ZZ    0.000000   0.015060  -0.015802   0.026421   0.000000
   47  O  3 XY   -0.030572   0.000000   0.000000   0.000000  -0.026386
   48  O  3 XZ    0.000000   0.006983   0.028485  -0.005667   0.000000
   49  O  3 YZ   -0.010913   0.000000   0.000000   0.000000  -0.021826

                     31         32         33         34         35
                    0.8016     0.8199     0.8353     0.8477     1.4929
                     B1         B2         A1         B1         B1  
    1  S  1  S    0.000000   0.000000   0.017629   0.000000   0.000000
    2  S  1  S    0.000000   0.000000   0.028077   0.000000   0.000000
    3  S  1  S    0.000000   0.000000   0.236494   0.000000   0.000000
    4  S  1  S    0.000000   0.000000   0.066666   0.000000   0.000000
    5  S  1  X    0.039400   0.000000   0.000000  -0.096034  -0.017935
    6  S  1  Y    0.000000  -0.033793   0.000000   0.000000   0.000000
    7  S  1  Z    0.000000   0.000000  -0.067610   0.000000   0.000000
    8  S  1  X   -0.166637   0.000000   0.000000   0.465522   0.030071
    9  S  1  Y    0.000000   0.176781   0.000000   0.000000   0.000000
   10  S  1  Z    0.000000   0.000000   0.331241   0.000000   0.000000
   11  S  1  X   -0.268169   0.000000   0.000000  -0.304378   0.866196
   12  S  1  Y    0.000000  -0.499739   0.000000   0.000000   0.000000
   13  S  1  Z    0.000000   0.000000  -0.355224   0.000000   0.000000
   14  S  1 XX    0.000000   0.000000   0.330096   0.000000   0.000000
   15  S  1 YY    0.000000   0.000000   0.017881   0.000000   0.000000
   16  S  1 ZZ    0.000000   0.000000  -0.347977   0.000000   0.000000
   17  S  1 XY    0.000000   0.000000   0.000000   0.000000   0.000000
   18  S  1 XZ    0.064100   0.000000   0.000000   0.066134   0.440028
   19  S  1 YZ    0.000000  -0.365036   0.000000   0.000000   0.000000
   20  O  2  S    0.015600   0.000000   0.008625  -0.010884   0.018967
   21  O  2  S   -0.141188   0.000000  -0.096375   0.152055  -1.108156
   22  O  2  S    0.030219   0.000000   0.111644  -0.182860   1.442436
   23  O  2  X   -0.030482   0.000000   0.086207  -0.613784  -0.082046
   24  O  2  Y    0.000000  -0.594285   0.000000   0.000000   0.000000
   25  O  2  Z   -0.628382   0.000000  -0.571272   0.008729   0.109413
   26  O  2  X   -0.013355   0.000000  -0.112803   0.799951   0.344454
   27  O  2  Y    0.000000   0.805728   0.000000   0.000000   0.000000
   28  O  2  Z    0.814894   0.000000   0.778164  -0.013728  -0.389415
   29  O  2 XX   -0.004711   0.000000  -0.008580  -0.029514  -0.067147
   30  O  2 YY   -0.004669   0.000000  -0.020978   0.024695   0.091427
   31  O  2 ZZ    0.009381   0.000000   0.029558   0.004819  -0.024280
   32  O  2 XY    0.000000  -0.029828   0.000000   0.000000   0.000000
   33  O  2 XZ   -0.012729   0.000000  -0.047457   0.029226   0.158210
   34  O  2 YZ    0.000000   0.016324   0.000000   0.000000   0.000000
   35  O  3  S   -0.015600   0.000000   0.008625   0.010884  -0.018967
   36  O  3  S    0.141188   0.000000  -0.096375  -0.152055   1.108156
   37  O  3  S   -0.030219   0.000000   0.111644   0.182860  -1.442436
   38  O  3  X   -0.030482   0.000000  -0.086207  -0.613784  -0.082046
   39  O  3  Y    0.000000  -0.594285   0.000000   0.000000   0.000000
   40  O  3  Z    0.628382   0.000000  -0.571272  -0.008729  -0.109413
   41  O  3  X   -0.013355   0.000000   0.112803   0.799951   0.344454
   42  O  3  Y    0.000000   0.805728   0.000000   0.000000   0.000000
   43  O  3  Z   -0.814894   0.000000   0.778164   0.013728   0.389415
   44  O  3 XX    0.004711   0.000000  -0.008580   0.029514   0.067147
   45  O  3 YY    0.004669   0.000000  -0.020978  -0.024695  -0.091427
   46  O  3 ZZ   -0.009381   0.000000   0.029558  -0.004819   0.024280
   47  O  3 XY    0.000000   0.029828   0.000000   0.000000   0.000000
   48  O  3 XZ   -0.012729   0.000000   0.047457   0.029226   0.158210
   49  O  3 YZ    0.000000   0.016324   0.000000   0.000000   0.000000

                     36         37         38         39         40
                    1.5879     2.0909     2.0921     2.0953     2.0963
                     A1         B1         A2         B2         B1  
    1  S  1  S   -0.032072   0.000000   0.000000   0.000000   0.000000
    2  S  1  S   -0.295842   0.000000   0.000000   0.000000   0.000000
    3  S  1  S   -0.721985   0.000000   0.000000   0.000000   0.000000
    4  S  1  S    1.603795   0.000000   0.000000   0.000000   0.000000
    5  S  1  X    0.000000   0.000703   0.000000   0.000000   0.005953
    6  S  1  Y    0.000000   0.000000   0.000000  -0.001061   0.000000
    7  S  1  Z   -0.009016   0.000000   0.000000   0.000000   0.000000
    8  S  1  X    0.000000   0.020987   0.000000   0.000000  -0.013007
    9  S  1  Y    0.000000   0.000000   0.000000  -0.005935   0.000000
   10  S  1  Z   -0.001379   0.000000   0.000000   0.000000   0.000000
   11  S  1  X    0.000000  -0.159344   0.000000   0.000000  -0.067878
   12  S  1  Y    0.000000   0.000000   0.000000   0.041891   0.000000
   13  S  1  Z    0.734881   0.000000   0.000000   0.000000   0.000000
   14  S  1 XX    0.281930   0.000000   0.000000   0.000000   0.000000
   15  S  1 YY   -0.316907   0.000000   0.000000   0.000000   0.000000
   16  S  1 ZZ    0.034977   0.000000   0.000000   0.000000   0.000000
   17  S  1 XY    0.000000   0.000000   0.087464   0.000000   0.000000
   18  S  1 XZ    0.000000   0.026464   0.000000   0.000000  -0.002738
   19  S  1 YZ    0.000000   0.000000   0.000000   0.013752   0.000000
   20  O  2  S   -0.012407   0.000258   0.000000   0.000000   0.000691
   21  O  2  S    1.110016   0.067154   0.000000   0.000000   0.042836
   22  O  2  S   -1.523257  -0.116200   0.000000   0.000000  -0.070525
   23  O  2  X    0.130257  -0.010745   0.000000   0.000000   0.005458
   24  O  2  Y    0.000000   0.000000  -0.013317   0.010423   0.000000
   25  O  2  Z   -0.038022  -0.026123   0.000000   0.000000  -0.012071
   26  O  2  X   -0.564072  -0.004835   0.000000   0.000000  -0.022647
   27  O  2  Y    0.000000   0.000000   0.018579  -0.018455   0.000000
   28  O  2  Z    0.225639   0.057431   0.000000   0.000000   0.029241
   29  O  2 XX    0.153444   0.621865   0.000000   0.000000  -0.013400
   30  O  2 YY   -0.108633  -0.213570   0.000000   0.000000   0.591343
   31  O  2 ZZ   -0.044811  -0.408295   0.000000   0.000000  -0.577942
   32  O  2 XY    0.000000   0.000000   0.674225   0.219722   0.000000
   33  O  2 XZ   -0.144347   0.319857   0.000000   0.000000  -0.209937
   34  O  2 YZ    0.000000   0.000000   0.213637   0.672403   0.000000
   35  O  3  S   -0.012407  -0.000258   0.000000   0.000000  -0.000691
   36  O  3  S    1.110016  -0.067154   0.000000   0.000000  -0.042836
   37  O  3  S   -1.523257   0.116200   0.000000   0.000000   0.070525
   38  O  3  X   -0.130257  -0.010745   0.000000   0.000000   0.005458
   39  O  3  Y    0.000000   0.000000   0.013317   0.010423   0.000000
   40  O  3  Z   -0.038022   0.026123   0.000000   0.000000   0.012071
   41  O  3  X    0.564072  -0.004835   0.000000   0.000000  -0.022647
   42  O  3  Y    0.000000   0.000000  -0.018579  -0.018455   0.000000
   43  O  3  Z    0.225639  -0.057431   0.000000   0.000000  -0.029241
   44  O  3 XX    0.153444  -0.621865   0.000000   0.000000   0.013400
   45  O  3 YY   -0.108633   0.213570   0.000000   0.000000  -0.591343
   46  O  3 ZZ   -0.044811   0.408295   0.000000   0.000000   0.577942
   47  O  3 XY    0.000000   0.000000   0.674225  -0.219722   0.000000
   48  O  3 XZ    0.144347   0.319857   0.000000   0.000000  -0.209937
   49  O  3 YZ    0.000000   0.000000  -0.213637   0.672403   0.000000

                     41         42         43         44         45
                    2.0971     2.1023     2.1082     2.1559     2.3077
                     A1         A2         B2         A1         A1  
    1  S  1  S   -0.000354   0.000000   0.000000  -0.005220  -0.002934
    2  S  1  S   -0.003634   0.000000   0.000000  -0.036625  -0.174853
    3  S  1  S   -0.008517   0.000000   0.000000  -0.103230  -0.256052
    4  S  1  S    0.018414   0.000000   0.000000   0.194805   0.915814
    5  S  1  X    0.000000   0.000000   0.000000   0.000000   0.000000
    6  S  1  Y    0.000000   0.000000   0.003106   0.000000   0.000000
    7  S  1  Z   -0.000366   0.000000   0.000000   0.001823  -0.065821
    8  S  1  X    0.000000   0.000000   0.000000   0.000000   0.000000
    9  S  1  Y    0.000000   0.000000   0.021854   0.000000   0.000000
   10  S  1  Z    0.001134   0.000000   0.000000  -0.041402   0.211161
   11  S  1  X    0.000000   0.000000   0.000000   0.000000   0.000000
   12  S  1  Y    0.000000   0.000000  -0.144719   0.000000   0.000000
   13  S  1  Z    0.004990   0.000000   0.000000   0.226282   0.339173
   14  S  1 XX    0.015639   0.000000   0.000000  -0.153755   0.306123
   15  S  1 YY   -0.029078   0.000000   0.000000  -0.026981  -0.330566
   16  S  1 ZZ    0.013438   0.000000   0.000000   0.180736   0.024443
   17  S  1 XY    0.000000  -0.141364   0.000000   0.000000   0.000000
   18  S  1 XZ    0.000000   0.000000   0.000000   0.000000   0.000000
   19  S  1 YZ    0.000000   0.000000  -0.127467   0.000000   0.000000
   20  O  2  S    0.000849   0.000000   0.000000   0.000776   0.004698
   21  O  2  S    0.007411   0.000000   0.000000   0.093927   0.468629
   22  O  2  S   -0.016098   0.000000   0.000000  -0.165529  -0.724386
   23  O  2  X   -0.002562   0.000000   0.000000   0.029775   0.103658
   24  O  2  Y    0.000000   0.018250  -0.036036   0.000000   0.000000
   25  O  2  Z   -0.001570   0.000000   0.000000   0.029209  -0.055785
   26  O  2  X   -0.002598   0.000000   0.000000  -0.100035  -0.391455
   27  O  2  Y    0.000000  -0.026239   0.070307   0.000000   0.000000
   28  O  2  Z    0.005502   0.000000   0.000000  -0.040050   0.211806
   29  O  2 XX   -0.194526   0.000000   0.000000  -0.542870  -0.397306
   30  O  2 YY    0.613007   0.000000   0.000000  -0.025991   0.345515
   31  O  2 ZZ   -0.418481   0.000000   0.000000   0.568861   0.051792
   32  O  2 XY    0.000000  -0.214000   0.674361   0.000000   0.000000
   33  O  2 XZ   -0.327728   0.000000   0.000000  -0.300784   0.547181
   34  O  2 YZ    0.000000   0.674146  -0.222404   0.000000   0.000000
   35  O  3  S    0.000849   0.000000   0.000000   0.000776   0.004698
   36  O  3  S    0.007411   0.000000   0.000000   0.093927   0.468629
   37  O  3  S   -0.016098   0.000000   0.000000  -0.165529  -0.724386
   38  O  3  X    0.002562   0.000000   0.000000  -0.029775  -0.103658
   39  O  3  Y    0.000000  -0.018250  -0.036036   0.000000   0.000000
   40  O  3  Z   -0.001570   0.000000   0.000000   0.029209  -0.055785
   41  O  3  X    0.002598   0.000000   0.000000   0.100035   0.391455
   42  O  3  Y    0.000000   0.026239   0.070307   0.000000   0.000000
   43  O  3  Z    0.005502   0.000000   0.000000  -0.040050   0.211806
   44  O  3 XX   -0.194526   0.000000   0.000000  -0.542870  -0.397306
   45  O  3 YY    0.613007   0.000000   0.000000  -0.025991   0.345515
   46  O  3 ZZ   -0.418481   0.000000   0.000000   0.568861   0.051792
   47  O  3 XY    0.000000  -0.214000  -0.674361   0.000000   0.000000
   48  O  3 XZ    0.327728   0.000000   0.000000   0.300784  -0.547181
   49  O  3 YZ    0.000000  -0.674146  -0.222404   0.000000   0.000000

                     46
                    2.3578
                     B1  
    1  S  1  S    0.000000
    2  S  1  S    0.000000
    3  S  1  S    0.000000
    4  S  1  S    0.000000
    5  S  1  X    0.091800
    6  S  1  Y    0.000000
    7  S  1  Z    0.000000
    8  S  1  X   -0.305378
    9  S  1  Y    0.000000
   10  S  1  Z    0.000000
   11  S  1  X   -0.327022
   12  S  1  Y    0.000000
   13  S  1  Z    0.000000
   14  S  1 XX    0.000000
   15  S  1 YY    0.000000
   16  S  1 ZZ    0.000000
   17  S  1 XY    0.000000
   18  S  1 XZ   -0.468062
   19  S  1 YZ    0.000000
   20  O  2  S    0.004667
   21  O  2  S    0.374831
   22  O  2  S   -0.564715
   23  O  2  X    0.074509
   24  O  2  Y    0.000000
   25  O  2  Z   -0.060760
   26  O  2  X   -0.280268
   27  O  2  Y    0.000000
   28  O  2  Z    0.232042
   29  O  2 XX   -0.343220
   30  O  2 YY    0.323546
   31  O  2 ZZ    0.019674
   32  O  2 XY    0.000000
   33  O  2 XZ    0.594562
   34  O  2 YZ    0.000000
   35  O  3  S   -0.004667
   36  O  3  S   -0.374831
   37  O  3  S    0.564715
   38  O  3  X    0.074509
   39  O  3  Y    0.000000
   40  O  3  Z    0.060760
   41  O  3  X   -0.280268
   42  O  3  Y    0.000000
   43  O  3  Z   -0.232042
   44  O  3 XX    0.343220
   45  O  3 YY   -0.323546
   46  O  3 ZZ   -0.019674
   47  O  3 XY    0.000000
   48  O  3 XZ    0.594562
   49  O  3 YZ    0.000000
 ...... END OF RHF CALCULATION ......
 STEP CPU TIME =     4.18 TOTAL CPU TIME =        4.3 (    0.1 MIN)
 TOTAL WALL CLOCK TIME=        4.4 SECONDS, CPU UTILIZATION IS  99.77%

     ---------------------------------------------------------------------
     PROPERTIES FOR THE PBE      DFT FUNCTIONAL (RHF  TYPE) DENSITY MATRIX
     ---------------------------------------------------------------------

          -----------------
          ENERGY COMPONENTS
          -----------------

         WAVEFUNCTION NORMALIZATION =       1.0000000000

                ONE ELECTRON ENERGY =    -919.0595455612
                TWO ELECTRON ENERGY =     288.7614245072
           NUCLEAR REPULSION ENERGY =      82.1797748672
                                      ------------------
                       TOTAL ENERGY =    -548.1183461867

 ELECTRON-ELECTRON POTENTIAL ENERGY =     288.7614245072
  NUCLEUS-ELECTRON POTENTIAL ENERGY =   -1465.6369970954
   NUCLEUS-NUCLEUS POTENTIAL ENERGY =      82.1797748672
                                      ------------------
             TOTAL POTENTIAL ENERGY =   -1094.6957977209
               TOTAL KINETIC ENERGY =     546.5774515342
                 VIRIAL RATIO (V/T) =       2.0028191698

          ---------------------------------------
          MULLIKEN AND LOWDIN POPULATION ANALYSES
          ---------------------------------------

     ATOMIC MULLIKEN POPULATION IN EACH MOLECULAR ORBITAL

                      1          2          3          4          5

                  2.000000   2.000000   2.000000   2.000000   2.000000

    1             1.999998   0.000587   0.000459   1.999880   2.000004
    2             0.000001   0.999707   0.999770   0.000060  -0.000002
    3             0.000001   0.999707   0.999770   0.000060  -0.000002

                      6          7          8          9         10

                  2.000000   2.000000   2.000000   2.000000   2.000000

    1             2.000002   1.999994   0.462733   0.110012   1.439531
    2            -0.000001   0.000003   0.768634   0.944994   0.280235
    3            -0.000001   0.000003   0.768634   0.944994   0.280235

                     11         12         13         14         15

                  2.000000   2.000000   2.000000   2.000000   2.000000

    1             0.748473   1.109165   1.275474   0.018450   0.080789
    2             0.625763   0.445417   0.362263   0.990775   0.959606
    3             0.625763   0.445417   0.362263   0.990775   0.959606

                     16

                  2.000000

    1             0.061246
    2             0.969377
    3             0.969377

               ----- POPULATIONS IN EACH AO -----
                             MULLIKEN      LOWDIN
              1  S  1  S      2.00021     1.99606
              2  S  1  S      2.01082     1.97479
              3  S  1  S      1.01700     0.65220
              4  S  1  S      0.89463     0.56709
              5  S  1  X      1.99605     1.95271
              6  S  1  Y      1.99641     1.95777
              7  S  1  Z      1.99651     1.95768
              8  S  1  X      0.62235     0.58483
              9  S  1  Y      0.72350     0.70500
             10  S  1  Z      0.73289     0.70405
             11  S  1  X      0.26528     0.36981
             12  S  1  Y      0.55301     0.59686
             13  S  1  Z      0.39595     0.49169
             14  S  1 XX      0.01633     0.23923
             15  S  1 YY      0.02831     0.25330
             16  S  1 ZZ      0.01845     0.24627
             17  S  1 XY      0.03652     0.02097
             18  S  1 XZ      0.00255     0.04814
             19  S  1 YZ      0.00000     0.00247
             20  O  2  S      1.99802     1.98158
             21  O  2  S      0.86298     0.67668
             22  O  2  S      1.11960     0.62670
             23  O  2  X      0.82162     0.78401
             24  O  2  Y      0.81595     0.78760
             25  O  2  Z      1.00545     0.97236
             26  O  2  X      0.53696     0.60203
             27  O  2  Y      0.53561     0.56902
             28  O  2  Z      0.64355     0.69477
             29  O  2 XX      0.00087     0.21300
             30  O  2 YY      0.00168     0.21609
             31  O  2 ZZ      0.00096     0.21002
             32  O  2 XY      0.00283     0.00121
             33  O  2 XZ      0.00052     0.00383
             34  O  2 YZ      0.00000     0.00063
             35  O  3  S      1.99802     1.98158
             36  O  3  S      0.86298     0.67668
             37  O  3  S      1.11960     0.62670
             38  O  3  X      0.82162     0.78401
             39  O  3  Y      0.81595     0.78760
             40  O  3  Z      1.00545     0.97236
             41  O  3  X      0.53696     0.60203
             42  O  3  Y      0.53561     0.56902
             43  O  3  Z      0.64355     0.69477
             44  O  3 XX      0.00087     0.21300
             45  O  3 YY      0.00168     0.21609
             46  O  3 ZZ      0.00096     0.21002
             47  O  3 XY      0.00283     0.00121
             48  O  3 XZ      0.00052     0.00383
             49  O  3 YZ      0.00000     0.00063

          ----- MULLIKEN ATOMIC OVERLAP POPULATIONS -----
          (OFF-DIAGONAL ELEMENTS NEED TO BE MULTIPLIED BY 2)

             1           2           3

    1   14.8690241
    2    0.2188855   8.1434458
    3    0.2188855  -0.0157288   8.1434458

          TOTAL MULLIKEN AND LOWDIN ATOMIC POPULATIONS
       ATOM         MULL.POP.    CHARGE          LOW.POP.     CHARGE
    1 S            15.306795    0.693205        15.320920    0.679080
    2 O             8.346602   -0.346602         8.339540   -0.339540
    3 O             8.346602   -0.346602         8.339540   -0.339540

          MULLIKEN SPHERICAL HARMONIC POPULATIONS
       ATOM           S       P       D      F      G      H      I    TOTAL
    1 S             5.92    9.28    0.10   0.00   0.00   0.00   0.00   15.31
    2 O             3.98    4.36    0.01   0.00   0.00   0.00   0.00    8.35
    3 O             3.98    4.36    0.01   0.00   0.00   0.00   0.00    8.35

          -------------------------------
          BOND ORDER AND VALENCE ANALYSIS     BOND ORDER THRESHOLD=0.050
          -------------------------------

                   BOND                       BOND                       BOND
  ATOM PAIR DIST  ORDER      ATOM PAIR DIST  ORDER      ATOM PAIR DIST  ORDER
    1   2  1.900  1.535        1   3  1.900  1.535        2   3  3.113  0.598

                       TOTAL       BONDED        FREE
      ATOM            VALENCE     VALENCE     VALENCE
    1 S                 3.070       3.070       0.000
    2 O                 2.133       2.133       0.000
    3 O                 2.133       2.133       0.000

          ---------------------
          ELECTROSTATIC MOMENTS
          ---------------------

 POINT   1           X           Y           Z (BOHR)    CHARGE
                 0.000000    0.000000    0.000000        0.00 (A.U.)
         DX          DY          DZ         /D/  (DEBYE)
     0.000000    0.000000   -2.603055    2.603055
 ...... END OF PROPERTY EVALUATION ......
 STEP CPU TIME =     0.01 TOTAL CPU TIME =        4.4 (    0.1 MIN)
 TOTAL WALL CLOCK TIME=        4.4 SECONDS, CPU UTILIZATION IS  99.77%
               580000  WORDS OF DYNAMIC MEMORY USED
 EXECUTION OF GAMESS TERMINATED NORMALLY Thu Feb 26 00:21:41 2015
 DDI: 263624 bytes (0.3 MB / 0 MWords) used by master data server.

 ----------------------------------------
 CPU timing information for all processes
 ========================================
 0: 4.345 + 0.25 = 4.371
 ----------------------------------------
 ddikick.x: exited gracefully.
----- accounting info -----
Files used on the master node dftfe.crc.nd.edu were:
-rw-r--r-- 1 pmehta1 campus   37475 Feb 26 00:21 /tmp/gamess.dat
-rw-r--r-- 1 pmehta1 campus     142 Feb 26 00:21 /tmp/gamess.F05
-rw-r--r-- 1 pmehta1 campus 1980264 Feb 26 00:21 /tmp/gamess.F08
-rw-r--r-- 1 pmehta1 campus 1220440 Feb 26 00:21 /tmp/gamess.F10
Thu Feb 26 00:21:44 EST 2015
0.250u 0.168s 0:07.81 5.2%	0+0k 0+112io 0pf+0w
