----- GAMESS execution script 'rungms' -----
This job is running on host dftfe.crc.nd.edu
under operating system Linux at Thu Feb 26 00:22:31 EST 2015
Available scratch disk space (Kbyte units) at beginning of the job is
Filesystem     1K-blocks     Used Available Use% Mounted on
/dev/sda2      147771864 22818400 117447032  17% /
GAMESS temporary binary files will be written to /tmp
GAMESS supplementary output files will be written to /tmp
Copying input file gamess.inp to your run's scratch directory...

 Distributed Data Interface kickoff program.
 Initiating 1 compute processes on 1 nodes to run the following command:
 /opt/crc/gamess/2012R1/gamess/gamess.00.x gamess 

          ******************************************************
          *         GAMESS VERSION =  1 MAY 2012 (R1)          *
          *             FROM IOWA STATE UNIVERSITY             *
          * M.W.SCHMIDT, K.K.BALDRIDGE, J.A.BOATZ, S.T.ELBERT, *
          *   M.S.GORDON, J.H.JENSEN, S.KOSEKI, N.MATSUNAGA,   *
          *          K.A.NGUYEN, S.J.SU, T.L.WINDUS,           *
          *       TOGETHER WITH M.DUPUIS, J.A.MONTGOMERY       *
          *         J.COMPUT.CHEM.  14, 1347-1363(1993)        *
          **************** 64 BIT LINUX VERSION ****************

  SINCE 1993, STUDENTS AND POSTDOCS WORKING AT IOWA STATE UNIVERSITY
  AND ALSO IN THEIR VARIOUS JOBS AFTER LEAVING ISU HAVE MADE IMPORTANT
  CONTRIBUTIONS TO THE CODE:
     IVANA ADAMOVIC, CHRISTINE AIKENS, YURI ALEXEEV, POOJA ARORA,
     ANDREY ASADCHEV, ROB BELL, PRADIPTA BANDYOPADHYAY, JONATHAN BENTZ,
     BRETT BODE, GALINA CHABAN, WEI CHEN, CHEOL HO CHOI, PAUL DAY,
     ALBERT DEFUSCO, TIM DUDLEY, DMITRI FEDOROV, GRAHAM FLETCHER,
     MARK FREITAG, KURT GLAESEMANN, DAN KEMP, GRANT MERRILL,
     NORIYUKI MINEZAWA, JONATHAN MULLIN, TAKESHI NAGATA,
     SEAN NEDD, HEATHER NETZLOFF, BOSILJKA NJEGIC, RYAN OLSON, MIKE PAK,
     JIM SHOEMAKER, LYUDMILA SLIPCHENKO, SAROM SOK, JIE SONG,
     TETSUYA TAKETSUGU, SIMON WEBB, SOOHAENG YOO, FEDERICO ZAHARIEV

  ADDITIONAL CODE HAS BEEN PROVIDED BY COLLABORATORS IN OTHER GROUPS:
     IOWA STATE UNIVERSITY:
          JOE IVANIC, LAIMUTIS BYTAUTAS, KLAUS RUEDENBERG
     UNIVERSITY OF TOKYO: KIMIHIKO HIRAO, TAKAHITO NAKAJIMA,
          TAKAO TSUNEDA, MUNEAKI KAMIYA, SUSUMU YANAGISAWA,
          KIYOSHI YAGI, MAHITO CHIBA, SEIKEN TOKURA, NAOAKI KAWAKAMI
     UNIVERSITY OF AARHUS: FRANK JENSEN
     UNIVERSITY OF IOWA: VISVALDAS KAIRYS, HUI LI
     NATIONAL INST. OF STANDARDS AND TECHNOLOGY: WALT STEVENS, DAVID GARMER
     UNIVERSITY OF PISA: BENEDETTA MENNUCCI, JACOPO TOMASI
     UNIVERSITY OF MEMPHIS: HENRY KURTZ, PRAKASHAN KORAMBATH
     UNIVERSITY OF ALBERTA: TOBY ZENG, MARIUSZ KLOBUKOWSKI
     UNIVERSITY OF NEW ENGLAND: MARK SPACKMAN
     MIE UNIVERSITY: HIROAKI UMEDA
     MICHIGAN STATE UNIVERSITY:
          KAROL KOWALSKI, MARTA WLOCH, JEFFREY GOUR, JESSE LUTZ, PIOTR PIECUCH
     UNIVERSITY OF SILESIA: MONIKA MUSIAL, STANISLAW KUCHARSKI
     FACULTES UNIVERSITAIRES NOTRE-DAME DE LA PAIX:
          OLIVIER QUINET, BENOIT CHAMPAGNE
     UNIVERSITY OF CALIFORNIA - SANTA BARBARA: BERNARD KIRTMAN
     INSTITUTE FOR MOLECULAR SCIENCE:
          KAZUYA ISHIMURA, MICHIO KATOUDA, AND SHIGERU NAGASE
     UNIVERSITY OF NOTRE DAME: DAN CHIPMAN
     KYUSHU UNIVERSITY:
          HARUYUKI NAKANO,
          FENG LONG GU, JACEK KORCHOWIEC, MARCIN MAKOWSKI, AND YURIKO AOKI,
          HIROTOSHI MORI AND EISAKU MIYOSHI
     PENNSYLVANIA STATE UNIVERSITY:
          TZVETELIN IORDANOV, CHET SWALINA, JONATHAN SKONE,
          SHARON HAMMES-SCHIFFER
     WASEDA UNIVERSITY:
          MASATO KOBAYASHI, TOMOKO AKAMA, TSUGUKI TOUMA,
          TAKESHI YOSHIKAWA, YASUHIRO IKABATA, HIROMI NAKAI
     UNIVERSITY OF NEBRASKA:
          PEIFENG SU, DEJUN SI, NANDUN THELLAMUREGE, YALI WANG, HUI LI
     UNIVERSITY OF ZURICH:
          ROBERTO PEVERATI, KIM BALDRIDGE
     N. COPERNICUS UNIVERSITY AND JACKSON STATE UNIVERSITY:
          MARIA BARYSZ

 EXECUTION OF GAMESS BEGUN Thu Feb 26 00:22:31 2015

            ECHO OF THE FIRST FEW INPUT CARDS -
 INPUT CARD> $BASIS GBASIS=PC1 $END                                                         
 INPUT CARD> $CONTRL COORD=ZMT ISPHER=1 RUNTYP=ENERGY DFTTYP=PBE $END                       
 INPUT CARD>                                                                                
 INPUT CARD> $DATA                                                                          
 INPUT CARD>Title                                                                           
 INPUT CARD>Cnv 2                                                                           
 INPUT CARD>                                                                                
 INPUT CARD>S                                                                               
 INPUT CARD>O 1 2.00                                                                        
 INPUT CARD>O 1 2.00 2 90.0                                                                 
 INPUT CARD> $END                                                                           
    1000000 WORDS OF MEMORY AVAILABLE

     BASIS OPTIONS
     -------------
     GBASIS=PC1          IGAUSS=       0      POLAR=NONE    
     NDFUNC=       0     NFFUNC=       0     DIFFSP=       F
     NPFUNC=       0      DIFFS=       F     BASNAM=        


     RUN TITLE
     ---------
 Title                                                                           

 THE POINT GROUP OF THE MOLECULE IS CNV     
 THE ORDER OF THE PRINCIPAL AXIS IS     2

 YOUR FULLY SUBSTITUTED Z-MATRIX IS
 S   
 O      1   2.0000000
 O      1   2.0000000  2   90.0000

 THE MOMENTS OF INERTIA ARE (AMU-ANGSTROM**2)
 IXX=    31.981   IYY=    63.980   IZZ=    95.961

 ATOM      ATOMIC                      COORDINATES (BOHR)
           CHARGE         X                   Y                   Z
 S          16.0     0.0000000000        0.0000000000       -1.3366088786
 O           8.0    -2.6724761210        0.0000000000        1.3358672424
 O           8.0     2.6724761210        0.0000000000        1.3358672424

          INTERNUCLEAR DISTANCES (ANGS.)
          ------------------------------

                1 S          2 O          3 O     

   1 S       0.0000000    2.0000000 *  2.0000000 *
   2 O       2.0000000 *  0.0000000    2.8284271 *
   3 O       2.0000000 *  2.8284271 *  0.0000000  

  * ... LESS THAN  3.000


     ATOMIC BASIS SET
     ----------------
 THE CONTRACTED PRIMITIVE FUNCTIONS HAVE BEEN UNNORMALIZED
 THE CONTRACTED BASIS FUNCTIONS ARE NOW NORMALIZED TO UNITY

  SHELL TYPE  PRIMITIVE        EXPONENT          CONTRACTION COEFFICIENT(S)

 S         

      1   S       1         55510.0000000    0.000587229760
      1   S       2          8326.7000000    0.004532413947
      1   S       3          1895.6000000    0.023265261648
      1   S       4           536.7700000    0.089696133027
      1   S       5           174.6700000    0.254098332277
      1   S       6            62.5780000    0.438665087637
      1   S       7            23.5730000    0.314547135094
      1   S       8             5.8908000    0.032727897102

      2   S       9          8326.7000000   -0.000019755715
      2   S      10          1895.6000000   -0.000043822381
      2   S      11           536.7700000   -0.001730264906
      2   S      12           174.6700000   -0.009381263460
      2   S      13            62.5780000   -0.064050766303
      2   S      14            23.5730000   -0.082478179196
      2   S      15             5.8908000    0.478342956889
      2   S      16             2.1852000    0.626896670208

      3   S      17          1895.6000000    0.000016227260
      3   S      18           536.7700000    0.000191135619
      3   S      19           174.6700000    0.001952069674
      3   S      20            62.5780000    0.010578701087
      3   S      21            23.5730000    0.022164934551
      3   S      22             5.8908000   -0.184968323118
      3   S      23             2.1852000   -0.480920750976
      3   S      24             0.4528200    1.243822243872

      4   S      25             0.1620200    1.000000000000

      5   P      26           395.4500000    0.004642761329
      5   P      27            92.8340000    0.036023396489
      5   P      28            29.2660000    0.149058869978
      5   P      29            10.5950000    0.360033266263
      5   P      30             4.0272000    0.455756476221
      5   P      31             1.5484000    0.206167664178

      6   P      32            92.8340000    0.000169901442
      6   P      33            29.2660000   -0.002541839934
      6   P      34            10.5950000   -0.007867614595
      6   P      35             4.0272000   -0.037231009184
      6   P      36             1.5484000    0.161417246830
      6   P      37             0.4613400    0.902230419976

      7   P      38             0.1313100    1.000000000000

      8   D      39             0.5500000    1.000000000000

 O         

     15   S      40          2306.7000000    0.005424388755
     15   S      41           347.1500000    0.040474749465
     15   S      42            78.8900000    0.180219634554
     15   S      43            21.8760000    0.462370311787
     15   S      44             6.6646000    0.454888396263

     16   S      45           347.1500000   -0.000655003786
     16   S      46            78.8900000   -0.005362052952
     16   S      47            21.8760000   -0.074902158894
     16   S      48             6.6646000   -0.181442579655
     16   S      49             1.0669000    1.102006874042

     17   S      50             0.3070000    1.000000000000

     18   P      51            17.0220000    0.068979967443
     18   P      52             3.6838000    0.351985516325
     18   P      53             0.9923400    0.724036547822

     19   P      54             0.2448700    1.000000000000

     20   D      55             1.0000000    1.000000000000

 TOTAL NUMBER OF BASIS SET SHELLS             =   20
 NUMBER OF CARTESIAN GAUSSIAN BASIS FUNCTIONS =   49
 NOTE: THIS RUN WILL RESTRICT THE MO VARIATION SPACE TO SPHERICAL HARMONICS.
 THE NUMBER OF ORBITALS KEPT IN THE VARIATIONAL SPACE WILL BE PRINTED LATER.
 NUMBER OF ELECTRONS                          =   32
 CHARGE OF MOLECULE                           =    0
 SPIN MULTIPLICITY                            =    1
 NUMBER OF OCCUPIED ORBITALS (ALPHA)          =   16
 NUMBER OF OCCUPIED ORBITALS (BETA )          =   16
 TOTAL NUMBER OF ATOMS                        =    3
 THE NUCLEAR REPULSION ENERGY IS       79.7086021871

     LEBEDEV GRID-BASED DFT OPTIONS
     ------------------------------
     DFTTYP=PBE     
     NRAD  =      96     NLEB  =     302
     NRAD0 =      24     NLEB0 =     110
     SWOFF =    5.00E-03 (PURE SCF -> DFT)
     SWITCH=    3.00E-04 (COARSE -> TIGHT GRID)
     THRESH=    0.00E+00 GTHRE=    1.00E+00

 GRIMME'S EMPIRICAL DISPERSION CORRECTION= F

     $CONTRL OPTIONS
     ---------------
 SCFTYP=RHF          RUNTYP=ENERGY       EXETYP=RUN     
 MPLEVL=       0     CITYP =NONE         CCTYP =NONE         VBTYP =NONE    
 DFTTYP=PBE          TDDFT =NONE    
 MULT  =       1     ICHARG=       0     NZVAR =       0     COORD =ZMT     
 PP    =NONE         RELWFN=NONE         LOCAL =NONE         NUMGRD=       F
 ISPHER=       1     NOSYM =       0     MAXIT =      30     UNITS =ANGS    
 PLTORB=       F     MOLPLT=       F     AIMPAC=       F     FRIEND=        
 NPRINT=       7     IREST =       0     GEOM  =INPUT   
 NORMF =       0     NORMP =       0     ITOL  =      20     ICUT  =       9
 INTTYP=BEST         GRDTYP=BEST         QMTTOL= 1.0E-06

     $SYSTEM OPTIONS
     ---------------
  REPLICATED MEMORY=     1000000 WORDS (ON EVERY NODE).
 DISTRIBUTED MEMDDI=           0 MILLION WORDS IN AGGREGATE,
 MEMDDI DISTRIBUTED OVER   1 PROCESSORS IS           0 WORDS/PROCESSOR.
 TOTAL MEMORY REQUESTED ON EACH PROCESSOR=     1000000 WORDS.
 TIMLIM=      525600.00 MINUTES, OR     365.0 DAYS.
 PARALL= F  BALTYP=  DLB     KDIAG=    0  COREFL= F
 MXSEQ2=     300 MXSEQ3=     150

          ----------------
          PROPERTIES INPUT
          ----------------

     MOMENTS            FIELD           POTENTIAL          DENSITY
 IEMOM =       1   IEFLD =       0   IEPOT =       0   IEDEN =       0
 WHERE =COMASS     WHERE =NUCLEI     WHERE =NUCLEI     WHERE =NUCLEI  
 OUTPUT=BOTH       OUTPUT=BOTH       OUTPUT=BOTH       OUTPUT=BOTH    
 IEMINT=       0   IEFINT=       0                     IEDINT=       0
                                                       MORB  =       0
          EXTRAPOLATION IN EFFECT
          DIIS IN EFFECT
 ORBITAL PRINTING OPTION: NPREO=     1    49     2     1

     -------------------------------
     INTEGRAL TRANSFORMATION OPTIONS
     -------------------------------
     NWORD  =            0
     CUTOFF = 1.0E-09     MPTRAN =       0
     DIRTRF =       F     AOINTS =DUP     

          ----------------------
          INTEGRAL INPUT OPTIONS
          ----------------------
 NOPK  =       1 NORDER=       0 SCHWRZ=       F

   --- ENCODED Z MATRIX ---
 COORD  TYPE   I   J   K   L   M   N
    1      1    3   1
    2      1    2   1
    3      2    2   1   3

 THE DETERMINANT OF THE G MATRIX IS 10**(    -4)

 THE DETERMINANT OF THE G MATRIX IS 10**(    -4)
 * * * WARNING * * *
 YOUR B MATRIX HAS A SMALL DETERMINANT.
 THIS SUGGESTS YOU MAY HAVE BADLY CHOSEN COORDINATES.

     ------------------------------------------
     THE POINT GROUP IS CNV, NAXIS= 2, ORDER= 4
     ------------------------------------------

 -- VARIATIONAL SPACE WILL BE RESTRICTED TO PURE SPHERICAL HARMONICS ONLY --
 AFTER EXCLUDING CONTAMINANT COMBINATIONS FROM THE CARTESIAN GAUSSIAN BASIS
 SET, THE NUMBER OF SPHERICAL HARMONICS KEPT IN THE VARIATION SPACE IS   46

     DIMENSIONS OF THE SYMMETRY SUBSPACES ARE
 A1  =   19     A2  =    5     B1  =   14     B2  =    8

 ..... DONE SETTING UP THE RUN .....
 STEP CPU TIME =     0.02 TOTAL CPU TIME =        0.0 (    0.0 MIN)
 TOTAL WALL CLOCK TIME=        0.0 SECONDS, CPU UTILIZATION IS 100.00%

          ********************
          1 ELECTRON INTEGRALS
          ********************
 ...... END OF ONE-ELECTRON INTEGRALS ......
 STEP CPU TIME =     0.00 TOTAL CPU TIME =        0.0 (    0.0 MIN)
 TOTAL WALL CLOCK TIME=        0.0 SECONDS, CPU UTILIZATION IS 100.00%

          -------------
          GUESS OPTIONS
          -------------
          GUESS =HUCKEL            NORB  =       0          NORDER=       0
          MIX   =       F          PRTMO =       F          PUNMO =       F
          TOLZ  = 1.0E-08          TOLE  = 1.0E-05
          SYMDEN=       F          PURIFY=       F

 INITIAL GUESS ORBITALS GENERATED BY HUCKEL   ROUTINE.
 HUCKEL GUESS REQUIRES     21583 WORDS.

 STATISTICS FOR GENERATION OF SYMMETRY ORBITAL -Q- MATRIX
 NUMBER OF CARTESIAN ATOMIC ORBITALS=         49
 NUMBER OF SPHERICAL CONTAMINANTS DROPPED=     3
 NUMBER OF LINEARLY DEPENDENT MOS DROPPED=     0
 TOTAL NUMBER OF MOS IN VARIATION SPACE=      46

 SYMMETRIES FOR INITIAL GUESS ORBITALS FOLLOW.   BOTH SET(S).
    16 ORBITALS ARE OCCUPIED (    7 CORE ORBITALS).
     8=?A1      9=?B1     10=?A1     11=?B1     12=B2      13=?A1     14=A2  
    15=B1      16=?A1     17=B2      18=?B1     19=?A1     20=A1      21=A1  
    22=A1      23=A1      24=A1      25=A1      26=A1  
 ...... END OF INITIAL ORBITAL SELECTION ......
 STEP CPU TIME =     0.00 TOTAL CPU TIME =        0.0 (    0.0 MIN)
 TOTAL WALL CLOCK TIME=        0.0 SECONDS, CPU UTILIZATION IS  66.67%

                    ----------------------
                    AO INTEGRAL TECHNOLOGY
                    ----------------------
     S,P,L SHELL ROTATED AXIS INTEGRALS, REPROGRAMMED BY
        KAZUYA ISHIMURA (IMS) AND JOSE SIERRA (SYNSTAR).
     S,P,D,L SHELL ROTATED AXIS INTEGRALS PROGRAMMED BY
        KAZUYA ISHIMURA (INSTITUTE FOR MOLECULAR SCIENCE).
     S,P,D,F,G SHELL TO TOTAL QUARTET ANGULAR MOMENTUM SUM 5,
        ERIC PROGRAM BY GRAHAM FLETCHER (ELORET AND NASA ADVANCED
        SUPERCOMPUTING DIVISION, AMES RESEARCH CENTER).
     S,P,D,F,G,L SHELL GENERAL RYS QUADRATURE PROGRAMMED BY
        MICHEL DUPUIS (PACIFIC NORTHWEST NATIONAL LABORATORY).

          --------------------
          2 ELECTRON INTEGRALS
          --------------------

 THE -PK- OPTION IS OFF, THE INTEGRALS ARE NOT IN SUPERMATRIX FORM.
 STORING   15000 INTEGRALS/RECORD ON DISK, USING 12 BYTES/INTEGRAL.
 TWO ELECTRON INTEGRAL EVALUATION REQUIRES   90606 WORDS OF MEMORY.
 II,JST,KST,LST =  1  1  1  1 NREC =         1 INTLOC =    1
 II,JST,KST,LST =  2  1  1  1 NREC =         1 INTLOC =    2
 II,JST,KST,LST =  3  1  1  1 NREC =         1 INTLOC =    7
 II,JST,KST,LST =  4  1  1  1 NREC =         1 INTLOC =   22
 II,JST,KST,LST =  5  1  1  1 NREC =         1 INTLOC =   56
 II,JST,KST,LST =  6  1  1  1 NREC =         1 INTLOC =  125
 II,JST,KST,LST =  7  1  1  1 NREC =         1 INTLOC =  329
 II,JST,KST,LST =  8  1  1  1 NREC =         1 INTLOC =  776
 II,JST,KST,LST =  9  1  1  1 NREC =         1 INTLOC = 2864
 II,JST,KST,LST = 10  1  1  1 NREC =         1 INTLOC = 2864
 II,JST,KST,LST = 11  1  1  1 NREC =         1 INTLOC = 2864
 II,JST,KST,LST = 12  1  1  1 NREC =         1 INTLOC = 2864
 II,JST,KST,LST = 13  1  1  1 NREC =         1 INTLOC = 2864
 II,JST,KST,LST = 14  1  1  1 NREC =         1 INTLOC = 2864
 II,JST,KST,LST = 15  1  1  1 NREC =         1 INTLOC = 2864
 II,JST,KST,LST = 16  1  1  1 NREC =         1 INTLOC = 4683
 II,JST,KST,LST = 17  1  1  1 NREC =         1 INTLOC = 7710
 II,JST,KST,LST = 18  1  1  1 NREC =         1 INTLOC =12023
 II,JST,KST,LST = 19  1  1  1 NREC =         2 INTLOC =13569
 II,JST,KST,LST = 20  1  1  1 NREC =         4 INTLOC =14029
 TOTAL NUMBER OF NONZERO TWO-ELECTRON INTEGRALS =              167113
         12 INTEGRAL RECORDS WERE STORED ON DISK FILE  8.
  ...... END OF TWO-ELECTRON INTEGRALS .....
 STEP CPU TIME =     0.16 TOTAL CPU TIME =        0.2 (    0.0 MIN)
 TOTAL WALL CLOCK TIME=        0.2 SECONDS, CPU UTILIZATION IS 100.00%

          --------------------------
               R-PBE SCF CALCULATION
          --------------------------

     NUCLEAR ENERGY =        79.7086021871
     MAXIT =   30     NPUNCH=    2
     EXTRAP=T  DAMP=F  SHIFT=F  RSTRCT=F  DIIS=T  DEM=F  SOSCF=F
         DENSITY MATRIX CONVERGENCE THRESHOLD=  1.00E-05
     COARSE -> FINE DFT GRID SWITCH THRESHOLD=  3.00E-04 (SWITCH IN $DFT)
                   HF -> DFT SWITCH THRESHOLD=  5.00E-03 (SWOFF IN $DFT)
     MEMORY REQUIRED FOR RHF ITERS=    183108 WORDS.

 DFT CODE IS SWITCHING FROM THE FINE GRID NRAD= 96,  NLEB=  302
                      TO THE COARSE GRID NRAD0= 24, NLEB0=  110

     EXCHANGE FUNCTIONAL   =PBE       
     CORRELATION FUNCTIONAL=PBE       
     DFT THRESHOLD         =.460E-07
     GRID CHANGE THRESHOLD =.300E-03
 FOR AN EULER-MACLAURIN QUADRATURE USING  96 RADIAL POINTS:
 SMALLEST GAUSSIAN PRIMITIVE EXPONENT=        0.1313100000 OF TYPE -P-
 ON ATOM NUMBER   1 HAS RADIAL NORMALIZATION=  1.000000
  LARGEST GAUSSIAN PRIMITIVE EXPONENT=    55510.0000000000 OF TYPE -S-
 ON ATOM NUMBER   1 HAS RADIAL NORMALIZATION=  0.999999
 DFT IS SWITCHED OFF, PERFORMING PURE SCF UNTIL SWOFF THRESHOLD IS REACHED.

 ITER EX DEM     TOTAL ENERGY        E CHANGE  DENSITY CHANGE    DIIS ERROR
   1  0  0     -545.4711361589  -545.4711361589   0.905098155   0.862703645
   2  1  0     -544.9220996186     0.5490365403   1.035078460   0.876075754
   3  2  0     -543.5717705370     1.3503290816   2.619347367   0.851873855
   4  3  0     -533.2132587263    10.3585118106   2.820996760   2.117782189
   5  0  0     -534.1167389296    -0.9034802033   0.892324158   1.245567855
   6  1  0     -544.7390563193   -10.6223173897   1.541263864   0.604621536
   7  2  0     -539.4822858889     5.2567704304   1.553042281   1.630209656
   8  3  0     -539.4097469072     0.0725389817   3.629475225   1.260052117
   9  0  0     -518.6793436252    20.7304032820   3.441999656   2.515564434
  10  1  0     -544.4603702310   -25.7810266058   2.241493710   0.549130164
  11  2  0     -536.5944268741     7.8659433569   2.436302800   1.903598158
  12  3  0     -537.0883645213    -0.4939376472   3.761394564   1.230757322
  13  0  0     -509.7935726887    27.2947918326   3.652726316   2.806116042
  14  1  0     -544.0282497669   -34.2346770782   2.787027794   0.592555211
  15  2  0     -534.2496886113     9.7785611556   2.880790136   2.067379139
  16  3  0     -535.1595949207    -0.9099063094   3.903806969   1.233751966
  17  0  0     -506.1793358185    28.9802591022   3.828963411   2.352165151
  18  1  0     -543.9036966786   -37.7243608601   2.906571045   0.626261115
  19  2  0     -533.6202683466    10.2834283320   2.976558925   2.103147203
  20  3  0     -534.7078622854    -1.0875939388   3.932405532   1.239046676
  21  0  0     -505.6239320821    29.0839302033   3.864549114   2.229548175
  22  1  0     -543.8843298608   -38.2603977788   2.924877225   0.630389194
  23  2  0     -533.5239113309    10.3604185300   2.992045591   2.107499220
  24  3  0     -534.6431397377    -1.1192284069   3.936140253   1.239807537
  25  0  0     -505.5513246203    29.0918151174   3.869283305   2.212575966
  26  1  0     -543.8812633277   -38.3299387074   2.927822923   0.630952216
  27  2  0     -533.5086627305    10.3726005972   2.994571772   2.108139121
  28  3  0     -534.6330201586    -1.1243574281   3.936719278   1.239923707
  29  0  0     -505.5401387393    29.0928814193   3.870018643   2.209947045
  30  1  0     -543.8807781042   -38.3406393649   2.928288953   0.631040225

 SCF IS UNCONVERGED, TOO MANY ITERATIONS
     TIME TO FORM FOCK OPERATORS=       0.1 SECONDS (       0.0 SEC/ITER)
     TIME TO SOLVE SCF EQUATIONS=       0.0 SECONDS (       0.0 SEC/ITER)

 FINAL R-PBE ENERGY IS        0.0000000000 AFTER  30 ITERATIONS

          ------------
          EIGENVECTORS
          ------------

                      1          2          3          4          5
                  -93.6469   -19.2209   -19.2209   -10.4322    -8.1295
                     A1         A1         B1         A1         B2  
    1  S  1  S    1.003138  -0.000078   0.000000  -0.276259   0.000000
    2  S  1  S   -0.010488  -0.000925   0.000000   1.038591   0.000000
    3  S  1  S    0.002726  -0.002018   0.000000   0.012785   0.000000
    4  S  1  S   -0.001668   0.004779   0.000000  -0.000887   0.000000
    5  S  1  X    0.000000   0.000000   0.000077   0.000000   0.000000
    6  S  1  Y    0.000000   0.000000   0.000000   0.000000   1.002679
    7  S  1  Z   -0.000228  -0.000060   0.000000  -0.038291   0.000000
    8  S  1  X    0.000000   0.000000  -0.000188   0.000000   0.000000
    9  S  1  Y    0.000000   0.000000   0.000000   0.000000  -0.009049
   10  S  1  Z    0.000138   0.000041   0.000000  -0.002824   0.000000
   11  S  1  X    0.000000   0.000000  -0.001936   0.000000   0.000000
   12  S  1  Y    0.000000   0.000000   0.000000   0.000000   0.005023
   13  S  1  Z   -0.000295   0.002788   0.000000   0.001332   0.000000
   14  S  1 XX   -0.000021   0.000382   0.000000  -0.000091   0.000000
   15  S  1 YY    0.000056  -0.000803   0.000000   0.000039   0.000000
   16  S  1 ZZ   -0.000035   0.000421   0.000000   0.000052   0.000000
   17  S  1 XY    0.000000   0.000000   0.000000   0.000000   0.000000
   18  S  1 XZ    0.000000   0.000000  -0.001011   0.000000   0.000000
   19  S  1 YZ    0.000000   0.000000   0.000000   0.000000  -0.002505
   20  O  2  S   -0.000009   0.703192   0.703161   0.000000   0.000000
   21  O  2  S   -0.000085   0.022876   0.022570   0.000121   0.000000
   22  O  2  S    0.000294  -0.007185  -0.006231  -0.000350   0.000000
   23  O  2  X    0.000011   0.000644   0.000677  -0.000028   0.000000
   24  O  2  Y    0.000000   0.000000   0.000000   0.000000  -0.000012
   25  O  2  Z   -0.000018  -0.000872  -0.000868   0.000064   0.000000
   26  O  2  X    0.000091  -0.001441  -0.000935  -0.000067   0.000000
   27  O  2  Y    0.000000   0.000000   0.000000   0.000000  -0.000322
   28  O  2  Z   -0.000052   0.001307   0.001115  -0.000104   0.000000
   29  O  2 XX    0.000001  -0.000102  -0.000015  -0.000031   0.000000
   30  O  2 YY    0.000010   0.000100   0.000082   0.000027   0.000000
   31  O  2 ZZ   -0.000011   0.000002  -0.000068   0.000004   0.000000
   32  O  2 XY    0.000000   0.000000   0.000000   0.000000   0.000013
   33  O  2 XZ    0.000016   0.000189   0.000105   0.000049   0.000000
   34  O  2 YZ    0.000000   0.000000   0.000000   0.000000  -0.000004
   35  O  3  S   -0.000009   0.703192  -0.703161   0.000000   0.000000
   36  O  3  S   -0.000085   0.022876  -0.022570   0.000121   0.000000
   37  O  3  S    0.000294  -0.007185   0.006231  -0.000350   0.000000
   38  O  3  X   -0.000011  -0.000644   0.000677   0.000028   0.000000
   39  O  3  Y    0.000000   0.000000   0.000000   0.000000  -0.000012
   40  O  3  Z   -0.000018  -0.000872   0.000868   0.000064   0.000000
   41  O  3  X   -0.000091   0.001441  -0.000935   0.000067   0.000000
   42  O  3  Y    0.000000   0.000000   0.000000   0.000000  -0.000322
   43  O  3  Z   -0.000052   0.001307  -0.001115  -0.000104   0.000000
   44  O  3 XX    0.000001  -0.000102   0.000015  -0.000031   0.000000
   45  O  3 YY    0.000010   0.000100  -0.000082   0.000027   0.000000
   46  O  3 ZZ   -0.000011   0.000002   0.000068   0.000004   0.000000
   47  O  3 XY    0.000000   0.000000   0.000000   0.000000  -0.000013
   48  O  3 XZ   -0.000016  -0.000189   0.000105  -0.000049   0.000000
   49  O  3 YZ    0.000000   0.000000   0.000000   0.000000  -0.000004

                      6          7          8          9         10
                   -8.1259    -8.1218    -1.6242    -0.8961    -0.8886
                     B1         A1         A1         A1         B1  
    1  S  1  S    0.000000  -0.011124   0.093492   0.006204   0.000000
    2  S  1  S    0.000000   0.040746  -0.203849  -0.007986   0.000000
    3  S  1  S    0.000000  -0.004703   0.696781   0.054312   0.000000
    4  S  1  S    0.000000   0.001382   0.357969  -0.015687   0.000000
    5  S  1  X    1.002972   0.000000   0.000000   0.000000  -0.281365
    6  S  1  Y    0.000000   0.000000   0.000000   0.000000   0.000000
    7  S  1  Z    0.000000   1.002298   0.047582  -0.276734   0.000000
    8  S  1  X   -0.010007   0.000000   0.000000   0.000000   0.757833
    9  S  1  Y    0.000000   0.000000   0.000000   0.000000   0.000000
   10  S  1  Z    0.000000  -0.010387  -0.126523   0.745739   0.000000
   11  S  1  X    0.004321   0.000000   0.000000   0.000000   0.224695
   12  S  1  Y    0.000000   0.000000   0.000000   0.000000   0.000000
   13  S  1  Z    0.000000   0.005110  -0.010584   0.222415   0.000000
   14  S  1 XX    0.000000   0.001328  -0.014263   0.090435   0.000000
   15  S  1 YY    0.000000   0.001743   0.005675   0.049222   0.000000
   16  S  1 ZZ    0.000000  -0.003071   0.008588  -0.139656   0.000000
   17  S  1 XY    0.000000   0.000000   0.000000   0.000000   0.000000
   18  S  1 XZ   -0.003397   0.000000   0.000000   0.000000  -0.078858
   19  S  1 YZ    0.000000   0.000000   0.000000   0.000000   0.000000
   20  O  2  S    0.000053  -0.000025  -0.007369  -0.057999   0.057236
   21  O  2  S    0.000773  -0.000377   0.012161   0.093948  -0.094587
   22  O  2  S   -0.000629  -0.000240  -0.001318   0.138815  -0.133799
   23  O  2  X    0.000348  -0.000283   0.004624   0.050030  -0.032942
   24  O  2  Y    0.000000   0.000000   0.000000   0.000000   0.000000
   25  O  2  Z   -0.000250   0.000219  -0.011970  -0.043884   0.060647
   26  O  2  X   -0.001391   0.000640  -0.004053   0.016297  -0.023473
   27  O  2  Y    0.000000   0.000000   0.000000   0.000000   0.000000
   28  O  2  Z    0.000851  -0.000827   0.006388  -0.042246   0.034932
   29  O  2 XX   -0.000206   0.000190   0.000381  -0.000827   0.000405
   30  O  2 YY    0.000371  -0.000303  -0.000947  -0.003527   0.003751
   31  O  2 ZZ   -0.000165   0.000112   0.000566   0.004354  -0.004156
   32  O  2 XY    0.000000   0.000000   0.000000   0.000000   0.000000
   33  O  2 XZ    0.000637  -0.000523  -0.001642  -0.006824   0.006443
   34  O  2 YZ    0.000000   0.000000   0.000000   0.000000   0.000000
   35  O  3  S   -0.000053  -0.000025  -0.007369  -0.057999  -0.057236
   36  O  3  S   -0.000773  -0.000377   0.012161   0.093948   0.094587
   37  O  3  S    0.000629  -0.000240  -0.001318   0.138815   0.133799
   38  O  3  X    0.000348   0.000283  -0.004624  -0.050030  -0.032942
   39  O  3  Y    0.000000   0.000000   0.000000   0.000000   0.000000
   40  O  3  Z    0.000250   0.000219  -0.011970  -0.043884  -0.060647
   41  O  3  X   -0.001391  -0.000640   0.004053  -0.016297  -0.023473
   42  O  3  Y    0.000000   0.000000   0.000000   0.000000   0.000000
   43  O  3  Z   -0.000851  -0.000827   0.006388  -0.042246  -0.034932
   44  O  3 XX    0.000206   0.000190   0.000381  -0.000827  -0.000405
   45  O  3 YY   -0.000371  -0.000303  -0.000947  -0.003527  -0.003751
   46  O  3 ZZ    0.000165   0.000112   0.000566   0.004354   0.004156
   47  O  3 XY    0.000000   0.000000   0.000000   0.000000   0.000000
   48  O  3 XZ    0.000637   0.000523   0.001642   0.006824   0.006443
   49  O  3 YZ    0.000000   0.000000   0.000000   0.000000   0.000000

                     11         12         13         14         15
                   -0.8400    -0.5632    -0.5275    -0.0822    -0.0472
                     B2         B1         A1         A1         B1  
    1  S  1  S    0.000000   0.000000  -0.027680   0.062117   0.000000
    2  S  1  S    0.000000   0.000000  -0.002942   0.205039   0.000000
    3  S  1  S    0.000000   0.000000  -0.304413   0.950897   0.000000
    4  S  1  S    0.000000   0.000000   0.068206  -0.922099   0.000000
    5  S  1  X    0.000000  -0.148870   0.000000   0.000000   0.083509
    6  S  1  Y   -0.318006   0.000000   0.000000   0.000000   0.000000
    7  S  1  Z    0.000000   0.000000   0.139030   0.166327   0.000000
    8  S  1  X    0.000000   0.434626   0.000000   0.000000  -0.342487
    9  S  1  Y    0.869160   0.000000   0.000000   0.000000   0.000000
   10  S  1  Z    0.000000   0.000000  -0.398112  -0.707827   0.000000
   11  S  1  X    0.000000   0.129821   0.000000   0.000000   0.593005
   12  S  1  Y    0.251048   0.000000   0.000000   0.000000   0.000000
   13  S  1  Z    0.000000   0.000000  -0.157396   1.009895   0.000000
   14  S  1 XX    0.000000   0.000000   0.017416  -0.134320   0.000000
   15  S  1 YY    0.000000   0.000000  -0.174596   0.085588   0.000000
   16  S  1 ZZ    0.000000   0.000000   0.157181   0.048732   0.000000
   17  S  1 XY    0.000000   0.000000   0.000000   0.000000   0.000000
   18  S  1 XZ    0.000000  -0.254322   0.000000   0.000000  -0.512070
   19  S  1 YZ   -0.159216   0.000000   0.000000   0.000000   0.000000
   20  O  2  S    0.000000  -0.137814  -0.141527  -0.018055   0.039802
   21  O  2  S    0.000000   0.186854   0.193785   0.077613  -0.106691
   22  O  2  S    0.000000   0.498035   0.511292  -0.103341   0.014170
   23  O  2  X    0.000000   0.031678   0.009390  -0.004970   0.181113
   24  O  2  Y    0.021278   0.000000   0.000000   0.000000   0.000000
   25  O  2  Z    0.000000  -0.041991  -0.041358   0.102456  -0.122425
   26  O  2  X    0.000000   0.032108   0.025714  -0.116218   0.257175
   27  O  2  Y   -0.006681   0.000000   0.000000   0.000000   0.000000
   28  O  2  Z    0.000000  -0.075398  -0.057068   0.125185  -0.243247
   29  O  2 XX    0.000000  -0.001487  -0.000816  -0.001953   0.000016
   30  O  2 YY    0.000000  -0.003454  -0.003088   0.003794  -0.010869
   31  O  2 ZZ    0.000000   0.004941   0.003904  -0.001841   0.010853
   32  O  2 XY   -0.000521   0.000000   0.000000   0.000000   0.000000
   33  O  2 XZ    0.000000  -0.008201  -0.004808   0.002967  -0.022219
   34  O  2 YZ   -0.000214   0.000000   0.000000   0.000000   0.000000
   35  O  3  S    0.000000   0.137814  -0.141527  -0.018055  -0.039802
   36  O  3  S    0.000000  -0.186854   0.193785   0.077613   0.106691
   37  O  3  S    0.000000  -0.498035   0.511292  -0.103341  -0.014170
   38  O  3  X    0.000000   0.031678  -0.009390   0.004970   0.181113
   39  O  3  Y    0.021278   0.000000   0.000000   0.000000   0.000000
   40  O  3  Z    0.000000   0.041991  -0.041358   0.102456   0.122425
   41  O  3  X    0.000000   0.032108  -0.025714   0.116218   0.257175
   42  O  3  Y   -0.006681   0.000000   0.000000   0.000000   0.000000
   43  O  3  Z    0.000000   0.075398  -0.057068   0.125185   0.243247
   44  O  3 XX    0.000000   0.001487  -0.000816  -0.001953  -0.000016
   45  O  3 YY    0.000000   0.003454  -0.003088   0.003794   0.010869
   46  O  3 ZZ    0.000000  -0.004941   0.003904  -0.001841  -0.010853
   47  O  3 XY    0.000521   0.000000   0.000000   0.000000   0.000000
   48  O  3 XZ    0.000000  -0.008201   0.004808  -0.002967  -0.022219
   49  O  3 YZ   -0.000214   0.000000   0.000000   0.000000   0.000000

                     16         17         18         19         20
                   -0.0330    -0.0198    -0.0094     0.0008     0.0917
                     A1         B2         A2         A1         B1  
    1  S  1  S   -0.011210   0.000000   0.000000  -0.031680   0.000000
    2  S  1  S   -0.026969   0.000000   0.000000  -0.159760   0.000000
    3  S  1  S   -0.158819   0.000000   0.000000  -0.553277   0.000000
    4  S  1  S    0.110358   0.000000   0.000000   0.805683   0.000000
    5  S  1  X    0.000000   0.000000   0.000000   0.000000   0.153303
    6  S  1  Y    0.000000   0.054976   0.000000   0.000000   0.000000
    7  S  1  Z   -0.051370   0.000000   0.000000  -0.042821   0.000000
    8  S  1  X    0.000000   0.000000   0.000000   0.000000  -0.645720
    9  S  1  Y    0.000000  -0.243946   0.000000   0.000000   0.000000
   10  S  1  Z    0.201508   0.000000   0.000000   0.176024   0.000000
   11  S  1  X    0.000000   0.000000   0.000000   0.000000   0.776870
   12  S  1  Y    0.000000   0.295647   0.000000   0.000000   0.000000
   13  S  1  Z   -0.287591   0.000000   0.000000  -0.043965   0.000000
   14  S  1 XX   -0.473902   0.000000   0.000000  -0.416726   0.000000
   15  S  1 YY   -0.038915   0.000000   0.000000   0.740951   0.000000
   16  S  1 ZZ    0.512817   0.000000   0.000000  -0.324226   0.000000
   17  S  1 XY    0.000000   0.000000   0.697965   0.000000   0.000000
   18  S  1 XZ    0.000000   0.000000   0.000000   0.000000   0.171104
   19  S  1 YZ    0.000000   0.584289   0.000000   0.000000   0.000000
   20  O  2  S   -0.000309   0.000000   0.000000  -0.025325  -0.037351
   21  O  2  S   -0.014681   0.000000   0.000000   0.065212   0.021180
   22  O  2  S    0.056586   0.000000   0.000000   0.012502   0.292799
   23  O  2  X    0.184846   0.000000   0.000000  -0.117042   0.111551
   24  O  2  Y    0.000000   0.231252  -0.214590   0.000000   0.000000
   25  O  2  Z    0.128222   0.000000   0.000000   0.126095   0.252397
   26  O  2  X    0.315302   0.000000   0.000000  -0.186200   0.193354
   27  O  2  Y    0.000000   0.311924  -0.322210   0.000000   0.000000
   28  O  2  Z    0.201325   0.000000   0.000000   0.216668   0.233428
   29  O  2 XX    0.023781   0.000000   0.000000  -0.002075   0.010414
   30  O  2 YY   -0.000469   0.000000   0.000000   0.013067   0.003002
   31  O  2 ZZ   -0.023312   0.000000   0.000000  -0.010992  -0.013416
   32  O  2 XY    0.000000   0.012245  -0.011720   0.000000   0.000000
   33  O  2 XZ   -0.008462   0.000000   0.000000   0.017788  -0.006740
   34  O  2 YZ    0.000000  -0.016596   0.020483   0.000000   0.000000
   35  O  3  S   -0.000309   0.000000   0.000000  -0.025325   0.037351
   36  O  3  S   -0.014681   0.000000   0.000000   0.065212  -0.021180
   37  O  3  S    0.056586   0.000000   0.000000   0.012502  -0.292799
   38  O  3  X   -0.184846   0.000000   0.000000   0.117042   0.111551
   39  O  3  Y    0.000000   0.231252   0.214590   0.000000   0.000000
   40  O  3  Z    0.128222   0.000000   0.000000   0.126095  -0.252397
   41  O  3  X   -0.315302   0.000000   0.000000   0.186200   0.193354
   42  O  3  Y    0.000000   0.311924   0.322210   0.000000   0.000000
   43  O  3  Z    0.201325   0.000000   0.000000   0.216668  -0.233428
   44  O  3 XX    0.023781   0.000000   0.000000  -0.002075  -0.010414
   45  O  3 YY   -0.000469   0.000000   0.000000   0.013067  -0.003002
   46  O  3 ZZ   -0.023312   0.000000   0.000000  -0.010992   0.013416
   47  O  3 XY    0.000000  -0.012245  -0.011720   0.000000   0.000000
   48  O  3 XZ    0.008462   0.000000   0.000000  -0.017788  -0.006740
   49  O  3 YZ    0.000000  -0.016596  -0.020483   0.000000   0.000000

                     21         22         23         24         25
                    0.1156     0.1941     0.2215     0.2528     0.2552
                     B2         A2         B1         A1         B2  
    1  S  1  S    0.000000   0.000000   0.000000   0.011437   0.000000
    2  S  1  S    0.000000   0.000000   0.000000   0.004958   0.000000
    3  S  1  S    0.000000   0.000000   0.000000   0.134049   0.000000
    4  S  1  S    0.000000   0.000000   0.000000   0.016168   0.000000
    5  S  1  X    0.000000   0.000000   0.169745   0.000000   0.000000
    6  S  1  Y    0.233386   0.000000   0.000000   0.000000   0.059016
    7  S  1  Z    0.000000   0.000000   0.000000  -0.069786   0.000000
    8  S  1  X    0.000000   0.000000  -0.755972   0.000000   0.000000
    9  S  1  Y   -0.958053   0.000000   0.000000   0.000000  -0.326042
   10  S  1  Z    0.000000   0.000000   0.000000   0.311143   0.000000
   11  S  1  X    0.000000   0.000000   1.120343   0.000000   0.000000
   12  S  1  Y    1.089907   0.000000   0.000000   0.000000   0.696919
   13  S  1  Z    0.000000   0.000000   0.000000  -0.334339   0.000000
   14  S  1 XX    0.000000   0.000000   0.000000   0.704634   0.000000
   15  S  1 YY    0.000000   0.000000   0.000000  -0.347286   0.000000
   16  S  1 ZZ    0.000000   0.000000   0.000000  -0.357349   0.000000
   17  S  1 XY    0.000000   0.718132   0.000000   0.000000   0.000000
   18  S  1 XZ    0.000000   0.000000   0.015426   0.000000   0.000000
   19  S  1 YZ   -0.485447   0.000000   0.000000   0.000000   0.632171
   20  O  2  S    0.000000   0.000000  -0.017640  -0.009354   0.000000
   21  O  2  S    0.000000   0.000000  -0.048182   0.005224   0.000000
   22  O  2  S    0.000000   0.000000   0.326841   0.090757   0.000000
   23  O  2  X    0.000000   0.000000  -0.267514  -0.005624   0.000000
   24  O  2  Y    0.043242   0.274388   0.000000   0.000000  -0.257870
   25  O  2  Z    0.000000   0.000000  -0.085989   0.270671   0.000000
   26  O  2  X    0.000000   0.000000  -0.291549   0.032837   0.000000
   27  O  2  Y   -0.079290   0.359368   0.000000   0.000000  -0.406359
   28  O  2  Z    0.000000   0.000000  -0.279203   0.360460   0.000000
   29  O  2 XX    0.000000   0.000000  -0.012906   0.003932   0.000000
   30  O  2 YY    0.000000   0.000000  -0.004961   0.004935   0.000000
   31  O  2 ZZ    0.000000   0.000000   0.017867  -0.008867   0.000000
   32  O  2 XY   -0.010764   0.003757   0.000000   0.000000  -0.004679
   33  O  2 XZ    0.000000   0.000000   0.002577   0.004938   0.000000
   34  O  2 YZ    0.008123  -0.009056   0.000000   0.000000   0.012597
   35  O  3  S    0.000000   0.000000   0.017640  -0.009354   0.000000
   36  O  3  S    0.000000   0.000000   0.048182   0.005224   0.000000
   37  O  3  S    0.000000   0.000000  -0.326841   0.090757   0.000000
   38  O  3  X    0.000000   0.000000  -0.267514   0.005624   0.000000
   39  O  3  Y    0.043242  -0.274388   0.000000   0.000000  -0.257870
   40  O  3  Z    0.000000   0.000000   0.085989   0.270671   0.000000
   41  O  3  X    0.000000   0.000000  -0.291549  -0.032837   0.000000
   42  O  3  Y   -0.079290  -0.359368   0.000000   0.000000  -0.406359
   43  O  3  Z    0.000000   0.000000   0.279203   0.360460   0.000000
   44  O  3 XX    0.000000   0.000000   0.012906   0.003932   0.000000
   45  O  3 YY    0.000000   0.000000   0.004961   0.004935   0.000000
   46  O  3 ZZ    0.000000   0.000000  -0.017867  -0.008867   0.000000
   47  O  3 XY    0.010764   0.003757   0.000000   0.000000   0.004679
   48  O  3 XZ    0.000000   0.000000   0.002577  -0.004938   0.000000
   49  O  3 YZ    0.008123   0.009056   0.000000   0.000000   0.012597

                     26         27         28         29         30
                    0.2658     0.5033     0.5888     1.6180     1.6713
                     A1         B1         A1         A1         A2  
    1  S  1  S   -0.044471   0.000000  -0.076431   0.000106   0.000000
    2  S  1  S   -0.153793   0.000000  -0.454647  -0.016743   0.000000
    3  S  1  S   -0.691319   0.000000  -1.430881  -0.019334   0.000000
    4  S  1  S    0.691374   0.000000   2.188696   0.102736   0.000000
    5  S  1  X    0.000000  -0.036634   0.000000   0.000000   0.000000
    6  S  1  Y    0.000000   0.000000   0.000000   0.000000   0.000000
    7  S  1  Z    0.156069   0.000000   0.048897  -0.008254   0.000000
    8  S  1  X    0.000000   0.040452   0.000000   0.000000   0.000000
    9  S  1  Y    0.000000   0.000000   0.000000   0.000000   0.000000
   10  S  1  Z   -0.607181   0.000000  -0.342512   0.019222   0.000000
   11  S  1  X    0.000000   0.646586   0.000000   0.000000   0.000000
   12  S  1  Y    0.000000   0.000000   0.000000   0.000000   0.000000
   13  S  1  Z    0.494211   0.000000   1.269265   0.170930   0.000000
   14  S  1 XX    0.286124   0.000000   0.120753  -0.129918   0.000000
   15  S  1 YY    0.278406   0.000000  -0.520649  -0.020002   0.000000
   16  S  1 ZZ   -0.564529   0.000000   0.399896   0.149920   0.000000
   17  S  1 XY    0.000000   0.000000   0.000000   0.000000  -0.120850
   18  S  1 XZ    0.000000   0.875752   0.000000   0.000000   0.000000
   19  S  1 YZ    0.000000   0.000000   0.000000   0.000000   0.000000
   20  O  2  S    0.014229  -0.040237   0.064952   0.004339   0.000000
   21  O  2  S    0.028823   0.034965  -0.019744  -0.023175   0.000000
   22  O  2  S   -0.227306   0.284029  -0.657737  -0.026920   0.000000
   23  O  2  X    0.252803   0.143935  -0.119021   0.567192   0.000000
   24  O  2  Y    0.000000   0.000000   0.000000   0.000000   0.724920
   25  O  2  Z   -0.031826  -0.208394   0.074614   0.445400   0.000000
   26  O  2  X    0.197928   0.287647  -0.505533  -0.521631   0.000000
   27  O  2  Y    0.000000   0.000000   0.000000   0.000000  -0.667575
   28  O  2  Z   -0.003747  -0.394635   0.297568  -0.360372   0.000000
   29  O  2 XX   -0.008065  -0.003774  -0.007340   0.005012   0.000000
   30  O  2 YY    0.003966  -0.005356   0.016569   0.004382   0.000000
   31  O  2 ZZ    0.004099   0.009130  -0.009228  -0.009394   0.000000
   32  O  2 XY    0.000000   0.000000   0.000000   0.000000   0.010499
   33  O  2 XZ    0.000356  -0.006884   0.028880  -0.010295   0.000000
   34  O  2 YZ    0.000000   0.000000   0.000000   0.000000  -0.007051
   35  O  3  S    0.014229   0.040237   0.064952   0.004339   0.000000
   36  O  3  S    0.028823  -0.034965  -0.019744  -0.023175   0.000000
   37  O  3  S   -0.227306  -0.284029  -0.657737  -0.026920   0.000000
   38  O  3  X   -0.252803   0.143935   0.119021  -0.567192   0.000000
   39  O  3  Y    0.000000   0.000000   0.000000   0.000000  -0.724920
   40  O  3  Z   -0.031826   0.208394   0.074614   0.445400   0.000000
   41  O  3  X   -0.197928   0.287647   0.505533   0.521631   0.000000
   42  O  3  Y    0.000000   0.000000   0.000000   0.000000   0.667575
   43  O  3  Z   -0.003747   0.394635   0.297568  -0.360372   0.000000
   44  O  3 XX   -0.008065   0.003774  -0.007340   0.005012   0.000000
   45  O  3 YY    0.003966   0.005356   0.016569   0.004382   0.000000
   46  O  3 ZZ    0.004099  -0.009130  -0.009228  -0.009394   0.000000
   47  O  3 XY    0.000000   0.000000   0.000000   0.000000   0.010499
   48  O  3 XZ   -0.000356  -0.006884  -0.028880   0.010295   0.000000
   49  O  3 YZ    0.000000   0.000000   0.000000   0.000000   0.007051

                     31         32         33         34         35
                    1.6718     1.7571     1.7572     1.8112     2.3314
                     B2         A1         B1         B1         B1  
    1  S  1  S    0.000000   0.000273   0.000000   0.000000   0.000000
    2  S  1  S    0.000000  -0.090204   0.000000   0.000000   0.000000
    3  S  1  S    0.000000  -0.101374   0.000000   0.000000   0.000000
    4  S  1  S    0.000000   0.638414   0.000000   0.000000   0.000000
    5  S  1  X    0.000000   0.000000   0.014673  -0.036381  -0.023596
    6  S  1  Y    0.004124   0.000000   0.000000   0.000000   0.000000
    7  S  1  Z    0.000000  -0.040166   0.000000   0.000000   0.000000
    8  S  1  X    0.000000   0.000000  -0.050397   0.197297   0.066611
    9  S  1  Y   -0.044719   0.000000   0.000000   0.000000   0.000000
   10  S  1  Z    0.000000   0.192972   0.000000   0.000000   0.000000
   11  S  1  X    0.000000   0.000000  -0.362107  -0.028687   0.402050
   12  S  1  Y    0.248193   0.000000   0.000000   0.000000   0.000000
   13  S  1  Z    0.000000   0.228870   0.000000   0.000000   0.000000
   14  S  1 XX    0.000000   0.078281   0.000000   0.000000   0.000000
   15  S  1 YY    0.000000  -0.120186   0.000000   0.000000   0.000000
   16  S  1 ZZ    0.000000   0.041906   0.000000   0.000000   0.000000
   17  S  1 XY    0.000000   0.000000   0.000000   0.000000   0.000000
   18  S  1 XZ    0.000000   0.000000  -0.143123   0.099499   0.285845
   19  S  1 YZ    0.130219   0.000000   0.000000   0.000000   0.000000
   20  O  2  S    0.000000   0.021312   0.009577  -0.022159   0.048852
   21  O  2  S    0.000000  -0.049548   0.036209   0.197011  -1.171497
   22  O  2  S    0.000000  -0.132450  -0.156634  -0.119349   1.232762
   23  O  2  X    0.000000   0.436909  -0.161019  -0.694510  -0.148885
   24  O  2  Y    0.724591   0.000000   0.000000   0.000000   0.000000
   25  O  2  Z    0.000000  -0.570678  -0.707053   0.155222   0.043317
   26  O  2  X    0.000000  -0.540834   0.104379   0.749069   0.290925
   27  O  2  Y   -0.692782   0.000000   0.000000   0.000000   0.000000
   28  O  2  Z    0.000000   0.658722   0.782014  -0.175718  -0.195780
   29  O  2 XX    0.000000   0.004041  -0.010460  -0.030422  -0.029040
   30  O  2 YY    0.000000  -0.016640  -0.010660   0.026083   0.058031
   31  O  2 ZZ    0.000000   0.012599   0.021120   0.004339  -0.028992
   32  O  2 XY    0.010107   0.000000   0.000000   0.000000   0.000000
   33  O  2 XZ    0.000000  -0.038302  -0.028967   0.022123   0.066775
   34  O  2 YZ   -0.014501   0.000000   0.000000   0.000000   0.000000
   35  O  3  S    0.000000   0.021312  -0.009577   0.022159  -0.048852
   36  O  3  S    0.000000  -0.049548  -0.036209  -0.197011   1.171497
   37  O  3  S    0.000000  -0.132450   0.156634   0.119349  -1.232762
   38  O  3  X    0.000000  -0.436909  -0.161019  -0.694510  -0.148885
   39  O  3  Y    0.724591   0.000000   0.000000   0.000000   0.000000
   40  O  3  Z    0.000000  -0.570678   0.707053  -0.155222  -0.043317
   41  O  3  X    0.000000   0.540834   0.104379   0.749069   0.290925
   42  O  3  Y   -0.692782   0.000000   0.000000   0.000000   0.000000
   43  O  3  Z    0.000000   0.658722  -0.782014   0.175718   0.195780
   44  O  3 XX    0.000000   0.004041   0.010460   0.030422   0.029040
   45  O  3 YY    0.000000  -0.016640   0.010660  -0.026083  -0.058031
   46  O  3 ZZ    0.000000   0.012599  -0.021120  -0.004339   0.028992
   47  O  3 XY   -0.010107   0.000000   0.000000   0.000000   0.000000
   48  O  3 XZ    0.000000   0.038302  -0.028967   0.022123   0.066775
   49  O  3 YZ   -0.014501   0.000000   0.000000   0.000000   0.000000

                     36         37         38         39         40
                    2.3962     3.1310     3.1381     3.1483     3.1522
                     A1         A2         B1         B2         A1  
    1  S  1  S    0.022096   0.000000   0.000000   0.000000  -0.002104
    2  S  1  S    0.235771   0.000000   0.000000   0.000000   0.004871
    3  S  1  S    0.543400   0.000000   0.000000   0.000000  -0.016546
    4  S  1  S   -1.170767   0.000000   0.000000   0.000000  -0.018914
    5  S  1  X    0.000000   0.000000   0.004828   0.000000   0.000000
    6  S  1  Y    0.000000   0.000000   0.000000   0.000132   0.000000
    7  S  1  Z    0.014052   0.000000   0.000000   0.000000   0.012775
    8  S  1  X    0.000000   0.000000  -0.036444   0.000000   0.000000
    9  S  1  Y    0.000000   0.000000   0.000000  -0.020909   0.000000
   10  S  1  Z    0.003380   0.000000   0.000000   0.000000  -0.058045
   11  S  1  X    0.000000   0.000000   0.099398   0.000000   0.000000
   12  S  1  Y    0.000000   0.000000   0.000000   0.091968   0.000000
   13  S  1  Z   -0.653938   0.000000   0.000000   0.000000   0.065583
   14  S  1 XX   -0.094624   0.000000   0.000000   0.000000  -0.090403
   15  S  1 YY    0.220873   0.000000   0.000000   0.000000   0.034999
   16  S  1 ZZ   -0.126248   0.000000   0.000000   0.000000   0.055404
   17  S  1 XY    0.000000  -0.066554   0.000000   0.000000   0.000000
   18  S  1 XZ    0.000000   0.000000  -0.000034   0.000000   0.000000
   19  S  1 YZ    0.000000   0.000000   0.000000   0.064886   0.000000
   20  O  2  S    0.039908   0.000000  -0.000446   0.000000   0.000788
   21  O  2  S   -1.224698   0.000000  -0.017445   0.000000  -0.005241
   22  O  2  S    1.453633   0.000000   0.039331   0.000000  -0.006466
   23  O  2  X   -0.056491   0.000000   0.037303   0.000000  -0.009015
   24  O  2  Y    0.000000   0.026328   0.000000   0.037667   0.000000
   25  O  2  Z    0.049030   0.000000   0.026823   0.000000   0.039148
   26  O  2  X    0.325545   0.000000  -0.027672   0.000000   0.012051
   27  O  2  Y    0.000000  -0.004083   0.000000  -0.031234   0.000000
   28  O  2  Z   -0.250988   0.000000  -0.025033   0.000000  -0.023263
   29  O  2 XX   -0.049086   0.000000  -0.509331   0.000000  -0.374197
   30  O  2 YY    0.037430   0.000000  -0.152023   0.000000  -0.329515
   31  O  2 ZZ    0.011655   0.000000   0.661354   0.000000   0.703712
   32  O  2 XY    0.000000  -0.434887   0.000000  -0.272552   0.000000
   33  O  2 XZ    0.094325   0.000000   0.146772   0.000000  -0.085185
   34  O  2 YZ    0.000000   0.558013   0.000000   0.655131   0.000000
   35  O  3  S    0.039908   0.000000   0.000446   0.000000   0.000788
   36  O  3  S   -1.224698   0.000000   0.017445   0.000000  -0.005241
   37  O  3  S    1.453633   0.000000  -0.039331   0.000000  -0.006466
   38  O  3  X    0.056491   0.000000   0.037303   0.000000   0.009015
   39  O  3  Y    0.000000  -0.026328   0.000000   0.037667   0.000000
   40  O  3  Z    0.049030   0.000000  -0.026823   0.000000   0.039148
   41  O  3  X   -0.325545   0.000000  -0.027672   0.000000  -0.012051
   42  O  3  Y    0.000000   0.004083   0.000000  -0.031234   0.000000
   43  O  3  Z   -0.250988   0.000000   0.025033   0.000000  -0.023263
   44  O  3 XX   -0.049086   0.000000   0.509331   0.000000  -0.374197
   45  O  3 YY    0.037430   0.000000   0.152023   0.000000  -0.329515
   46  O  3 ZZ    0.011655   0.000000  -0.661354   0.000000   0.703712
   47  O  3 XY    0.000000  -0.434887   0.000000   0.272552   0.000000
   48  O  3 XZ   -0.094325   0.000000   0.146772   0.000000   0.085185
   49  O  3 YZ    0.000000  -0.558013   0.000000   0.655131   0.000000

                     41         42         43         44         45
                    3.1667     3.1681     3.1685     3.1718     3.2581
                     A2         A1         B2         B1         A1  
    1  S  1  S    0.000000  -0.000124   0.000000   0.000000  -0.005317
    2  S  1  S    0.000000   0.002748   0.000000   0.000000  -0.121992
    3  S  1  S    0.000000   0.002012   0.000000   0.000000  -0.216093
    4  S  1  S    0.000000  -0.015957   0.000000   0.000000   0.585960
    5  S  1  X    0.000000   0.000000   0.000000   0.002944   0.000000
    6  S  1  Y    0.000000   0.000000   0.000217   0.000000   0.000000
    7  S  1  Z    0.000000   0.001431   0.000000   0.000000  -0.040578
    8  S  1  X    0.000000   0.000000   0.000000  -0.017874   0.000000
    9  S  1  Y    0.000000   0.000000   0.007479   0.000000   0.000000
   10  S  1  Z    0.000000  -0.009883   0.000000   0.000000   0.109625
   11  S  1  X    0.000000   0.000000   0.000000   0.024500   0.000000
   12  S  1  Y    0.000000   0.000000  -0.036544   0.000000   0.000000
   13  S  1  Z    0.000000   0.011249   0.000000   0.000000   0.294134
   14  S  1 XX    0.000000  -0.024553   0.000000   0.000000   0.055229
   15  S  1 YY    0.000000  -0.003655   0.000000   0.000000  -0.184799
   16  S  1 ZZ    0.000000   0.028209   0.000000   0.000000   0.129570
   17  S  1 XY    0.001290   0.000000   0.000000   0.000000   0.000000
   18  S  1 XZ    0.000000   0.000000   0.000000  -0.004219   0.000000
   19  S  1 YZ    0.000000   0.000000  -0.035815   0.000000   0.000000
   20  O  2  S    0.000000   0.000610   0.000000  -0.000702  -0.000406
   21  O  2  S    0.000000  -0.009504   0.000000   0.022829   0.303073
   22  O  2  S    0.000000   0.007458   0.000000  -0.020305  -0.451026
   23  O  2  X    0.000000  -0.015577   0.000000   0.030076   0.078972
   24  O  2  Y   -0.003565   0.000000  -0.007441   0.000000   0.000000
   25  O  2  Z    0.000000   0.006028   0.000000   0.007970  -0.059699
   26  O  2  X    0.000000   0.018399   0.000000  -0.045806  -0.204262
   27  O  2  Y    0.009909   0.000000   0.011617   0.000000   0.000000
   28  O  2  Z    0.000000  -0.005065   0.000000  -0.011875   0.167927
   29  O  2 XX    0.000000  -0.496019   0.000000  -0.473080  -0.343434
   30  O  2 YY    0.000000   0.559697   0.000000   0.590869   0.285827
   31  O  2 ZZ    0.000000  -0.063678   0.000000  -0.117790   0.057607
   32  O  2 XY    0.557805   0.000000   0.654269   0.000000   0.000000
   33  O  2 XZ    0.000000  -0.353224   0.000000  -0.329422   0.612731
   34  O  2 YZ    0.434550   0.000000   0.269610   0.000000   0.000000
   35  O  3  S    0.000000   0.000610   0.000000   0.000702  -0.000406
   36  O  3  S    0.000000  -0.009504   0.000000  -0.022829   0.303073
   37  O  3  S    0.000000   0.007458   0.000000   0.020305  -0.451026
   38  O  3  X    0.000000   0.015577   0.000000   0.030076  -0.078972
   39  O  3  Y    0.003565   0.000000  -0.007441   0.000000   0.000000
   40  O  3  Z    0.000000   0.006028   0.000000  -0.007970  -0.059699
   41  O  3  X    0.000000  -0.018399   0.000000  -0.045806   0.204262
   42  O  3  Y   -0.009909   0.000000   0.011617   0.000000   0.000000
   43  O  3  Z    0.000000  -0.005065   0.000000   0.011875   0.167927
   44  O  3 XX    0.000000  -0.496019   0.000000   0.473080  -0.343434
   45  O  3 YY    0.000000   0.559697   0.000000  -0.590869   0.285827
   46  O  3 ZZ    0.000000  -0.063678   0.000000   0.117790   0.057607
   47  O  3 XY    0.557805   0.000000  -0.654269   0.000000   0.000000
   48  O  3 XZ    0.000000   0.353224   0.000000  -0.329422  -0.612731
   49  O  3 YZ   -0.434550   0.000000   0.269610   0.000000   0.000000

                     46
                    3.2606
                     B1  
    1  S  1  S    0.000000
    2  S  1  S    0.000000
    3  S  1  S    0.000000
    4  S  1  S    0.000000
    5  S  1  X    0.044040
    6  S  1  Y    0.000000
    7  S  1  Z    0.000000
    8  S  1  X   -0.139125
    9  S  1  Y    0.000000
   10  S  1  Z    0.000000
   11  S  1  X   -0.152333
   12  S  1  Y    0.000000
   13  S  1  Z    0.000000
   14  S  1 XX    0.000000
   15  S  1 YY    0.000000
   16  S  1 ZZ    0.000000
   17  S  1 XY    0.000000
   18  S  1 XZ   -0.269427
   19  S  1 YZ    0.000000
   20  O  2  S   -0.001618
   21  O  2  S    0.212587
   22  O  2  S   -0.278623
   23  O  2  X    0.068564
   24  O  2  Y    0.000000
   25  O  2  Z   -0.075309
   26  O  2  X   -0.127834
   27  O  2  Y    0.000000
   28  O  2  Z    0.154468
   29  O  2 XX   -0.132201
   30  O  2 YY    0.359662
   31  O  2 ZZ   -0.227461
   32  O  2 XY    0.000000
   33  O  2 XZ    0.616930
   34  O  2 YZ    0.000000
   35  O  3  S    0.001618
   36  O  3  S   -0.212587
   37  O  3  S    0.278623
   38  O  3  X    0.068564
   39  O  3  Y    0.000000
   40  O  3  Z    0.075309
   41  O  3  X   -0.127834
   42  O  3  Y    0.000000
   43  O  3  Z   -0.154468
   44  O  3 XX    0.132201
   45  O  3 YY   -0.359662
   46  O  3 ZZ    0.227461
   47  O  3 XY    0.000000
   48  O  3 XZ    0.616930
   49  O  3 YZ    0.000000
 ...... END OF RHF CALCULATION ......
 STEP CPU TIME =     0.14 TOTAL CPU TIME =        0.3 (    0.0 MIN)
 TOTAL WALL CLOCK TIME=        0.3 SECONDS, CPU UTILIZATION IS 100.00%

     ---------------------------------------------------------------------
     PROPERTIES FOR THE PBE      DFT FUNCTIONAL (RHF  TYPE) DENSITY MATRIX
     ---------------------------------------------------------------------

          -----------------
          ENERGY COMPONENTS
          -----------------

         WAVEFUNCTION NORMALIZATION =       1.0000000000

                ONE ELECTRON ENERGY =    -916.1673331735
                TWO ELECTRON ENERGY =     836.4587309864
           NUCLEAR REPULSION ENERGY =      79.7086021871
                                      ------------------
                       TOTAL ENERGY =       0.0000000000

 ELECTRON-ELECTRON POTENTIAL ENERGY =     836.4587309864
  NUCLEUS-ELECTRON POTENTIAL ENERGY =   -1462.0409398662
   NUCLEUS-NUCLEUS POTENTIAL ENERGY =      79.7086021871
                                      ------------------
             TOTAL POTENTIAL ENERGY =    -545.8736066927
               TOTAL KINETIC ENERGY =     545.8736066927
                 VIRIAL RATIO (V/T) =       1.0000000000

          ---------------------------------------
          MULLIKEN AND LOWDIN POPULATION ANALYSES
          ---------------------------------------

     ATOMIC MULLIKEN POPULATION IN EACH MOLECULAR ORBITAL

                      1          2          3          4          5

                  2.000000   2.000000   2.000000   2.000000   2.000000

    1             1.999996   0.000438   0.000189   2.000008   2.000009
    2             0.000002   0.999781   0.999905  -0.000004  -0.000005
    3             0.000002   0.999781   0.999905  -0.000004  -0.000005

                      6          7          8          9         10

                  2.000000   2.000000   2.000000   2.000000   2.000000

    1             1.999824   1.999891   2.003957   1.636399   1.648975
    2             0.000088   0.000054  -0.001979   0.181801   0.175512
    3             0.000088   0.000054  -0.001979   0.181801   0.175512

                     11         12         13         14         15

                  2.000000   2.000000   2.000000   2.000000   2.000000

    1             2.000430   0.472987   0.435586   1.802362   1.005075
    2            -0.000215   0.763506   0.782207   0.098819   0.497463
    3            -0.000215   0.763506   0.782207   0.098819   0.497463

                     16

                  2.000000

    1             0.793790
    2             0.603105
    3             0.603105

               ----- POPULATIONS IN EACH AO -----
                             MULLIKEN      LOWDIN
              1  S  1  S      2.00014     1.99775
              2  S  1  S      2.00118     1.97437
              3  S  1  S      1.62580     1.12849
              4  S  1  S      1.08185     0.80969
              5  S  1  X      2.00246     1.98882
              6  S  1  Y      2.00266     1.98794
              7  S  1  Z      2.00209     1.99223
              8  S  1  X      1.64261     1.48390
              9  S  1  Y      1.57312     1.44264
             10  S  1  Z      1.75904     1.64534
             11  S  1  X      0.58470     0.70698
             12  S  1  Y      0.37371     0.50767
             13  S  1  Z      1.24300     1.35506
             14  S  1 XX      0.72974     0.60202
             15  S  1 YY      0.22958     0.36369
             16  S  1 ZZ      0.00000     0.68823
             17  S  1 XY      0.89728     0.00000
             18  S  1 XZ      0.05095     0.95715
             19  S  1 YZ      0.00000     0.05199
             20  O  2  S      1.99689     1.97870
             21  O  2  S      0.55750     0.49369
             22  O  2  S      1.28252     0.71806
             23  O  2  X      0.25083     0.25331
             24  O  2  Y      0.00147     0.00084
             25  O  2  Z      0.18133     0.18442
             26  O  2  X      0.48678     0.50074
             27  O  2  Y     -0.00168     0.00386
             28  O  2  Z      0.33566     0.37068
             29  O  2 XX      0.00268     0.21186
             30  O  2 YY      0.00144     0.21343
             31  O  2 ZZ     -0.00002     0.22084
             32  O  2 XY      0.00462     0.00007
             33  O  2 XZ      0.00001     0.00742
             34  O  2 YZ      0.00000     0.00010
             35  O  3  S      1.99689     1.97870
             36  O  3  S      0.55750     0.49369
             37  O  3  S      1.28252     0.71806
             38  O  3  X      0.25083     0.25331
             39  O  3  Y      0.00147     0.00084
             40  O  3  Z      0.18133     0.18442
             41  O  3  X      0.48678     0.50074
             42  O  3  Y     -0.00168     0.00386
             43  O  3  Z      0.33566     0.37068
             44  O  3 XX      0.00268     0.21186
             45  O  3 YY      0.00144     0.21343
             46  O  3 ZZ     -0.00002     0.22084
             47  O  3 XY      0.00462     0.00007
             48  O  3 XZ      0.00001     0.00742
             49  O  3 YZ      0.00000     0.00010

          ----- MULLIKEN ATOMIC OVERLAP POPULATIONS -----
          (OFF-DIAGONAL ELEMENTS NEED TO BE MULTIPLIED BY 2)

             1           2           3

    1   21.9040056
    2   -0.0520453   5.1276633
    3   -0.0520453   0.0244246   5.1276633

          TOTAL MULLIKEN AND LOWDIN ATOMIC POPULATIONS
       ATOM         MULL.POP.    CHARGE          LOW.POP.     CHARGE
    1 S            21.799915   -5.799915        21.683953   -5.683953
    2 O             5.100043    2.899957         5.158024    2.841976
    3 O             5.100043    2.899957         5.158024    2.841976

          MULLIKEN SPHERICAL HARMONIC POPULATIONS
       ATOM           S       P       D      F      G      H      I    TOTAL
    1 S             6.71   13.18    1.91   0.00   0.00   0.00   0.00   21.80
    2 O             3.84    1.25    0.01   0.00   0.00   0.00   0.00    5.10
    3 O             3.84    1.25    0.01   0.00   0.00   0.00   0.00    5.10

          -------------------------------
          BOND ORDER AND VALENCE ANALYSIS     BOND ORDER THRESHOLD=0.050
          -------------------------------

                   BOND                       BOND                       BOND
  ATOM PAIR DIST  ORDER      ATOM PAIR DIST  ORDER      ATOM PAIR DIST  ORDER
    1   2  2.000  1.386        1   3  2.000  1.386        2   3  2.828  0.482

                       TOTAL       BONDED        FREE
      ATOM            VALENCE     VALENCE     VALENCE
    1 S                 2.773       2.773       0.000
    2 O                 1.869       1.869       0.000
    3 O                 1.869       1.869       0.000

          ---------------------
          ELECTROSTATIC MOMENTS
          ---------------------

 POINT   1           X           Y           Z (BOHR)    CHARGE
                 0.000000    0.000000    0.000000        0.00 (A.U.)
         DX          DY          DZ         /D/  (DEBYE)
     0.000000    0.000000   53.501307   53.501307
 ...... END OF PROPERTY EVALUATION ......
 STEP CPU TIME =     0.00 TOTAL CPU TIME =        0.3 (    0.0 MIN)
 TOTAL WALL CLOCK TIME=        0.3 SECONDS, CPU UTILIZATION IS  96.97%
               580000  WORDS OF DYNAMIC MEMORY USED
 EXECUTION OF GAMESS TERMINATED NORMALLY Thu Feb 26 00:22:32 2015
 DDI: 263624 bytes (0.3 MB / 0 MWords) used by master data server.

 ----------------------------------------
 CPU timing information for all processes
 ========================================
 0: 0.307 + 0.25 = 0.333
 ----------------------------------------
 ddikick.x: exited gracefully.
----- accounting info -----
Files used on the master node dftfe.crc.nd.edu were:
-rw-r--r-- 1 pmehta1 campus   37475 Feb 26 00:22 /tmp/gamess.dat
-rw-r--r-- 1 pmehta1 campus     141 Feb 26 00:22 /tmp/gamess.F05
-rw-r--r-- 1 pmehta1 campus 2160288 Feb 26 00:22 /tmp/gamess.F08
-rw-r--r-- 1 pmehta1 campus 1220440 Feb 26 00:22 /tmp/gamess.F10
Thu Feb 26 00:22:35 EST 2015
0.252u 0.162s 0:03.77 10.8%	0+0k 0+112io 0pf+0w
