----- GAMESS execution script 'rungms' -----
This job is running on host dftfe.crc.nd.edu
under operating system Linux at Thu Feb 26 00:13:12 EST 2015
Available scratch disk space (Kbyte units) at beginning of the job is
Filesystem     1K-blocks     Used Available Use% Mounted on
/dev/sda2      147771864 22810548 117454884  17% /
GAMESS temporary binary files will be written to /tmp
GAMESS supplementary output files will be written to /tmp
Copying input file gamess.inp to your run's scratch directory...

 Distributed Data Interface kickoff program.
 Initiating 1 compute processes on 1 nodes to run the following command:
 /opt/crc/gamess/2012R1/gamess/gamess.00.x gamess 

          ******************************************************
          *         GAMESS VERSION =  1 MAY 2012 (R1)          *
          *             FROM IOWA STATE UNIVERSITY             *
          * M.W.SCHMIDT, K.K.BALDRIDGE, J.A.BOATZ, S.T.ELBERT, *
          *   M.S.GORDON, J.H.JENSEN, S.KOSEKI, N.MATSUNAGA,   *
          *          K.A.NGUYEN, S.J.SU, T.L.WINDUS,           *
          *       TOGETHER WITH M.DUPUIS, J.A.MONTGOMERY       *
          *         J.COMPUT.CHEM.  14, 1347-1363(1993)        *
          **************** 64 BIT LINUX VERSION ****************

  SINCE 1993, STUDENTS AND POSTDOCS WORKING AT IOWA STATE UNIVERSITY
  AND ALSO IN THEIR VARIOUS JOBS AFTER LEAVING ISU HAVE MADE IMPORTANT
  CONTRIBUTIONS TO THE CODE:
     IVANA ADAMOVIC, CHRISTINE AIKENS, YURI ALEXEEV, POOJA ARORA,
     ANDREY ASADCHEV, ROB BELL, PRADIPTA BANDYOPADHYAY, JONATHAN BENTZ,
     BRETT BODE, GALINA CHABAN, WEI CHEN, CHEOL HO CHOI, PAUL DAY,
     ALBERT DEFUSCO, TIM DUDLEY, DMITRI FEDOROV, GRAHAM FLETCHER,
     MARK FREITAG, KURT GLAESEMANN, DAN KEMP, GRANT MERRILL,
     NORIYUKI MINEZAWA, JONATHAN MULLIN, TAKESHI NAGATA,
     SEAN NEDD, HEATHER NETZLOFF, BOSILJKA NJEGIC, RYAN OLSON, MIKE PAK,
     JIM SHOEMAKER, LYUDMILA SLIPCHENKO, SAROM SOK, JIE SONG,
     TETSUYA TAKETSUGU, SIMON WEBB, SOOHAENG YOO, FEDERICO ZAHARIEV

  ADDITIONAL CODE HAS BEEN PROVIDED BY COLLABORATORS IN OTHER GROUPS:
     IOWA STATE UNIVERSITY:
          JOE IVANIC, LAIMUTIS BYTAUTAS, KLAUS RUEDENBERG
     UNIVERSITY OF TOKYO: KIMIHIKO HIRAO, TAKAHITO NAKAJIMA,
          TAKAO TSUNEDA, MUNEAKI KAMIYA, SUSUMU YANAGISAWA,
          KIYOSHI YAGI, MAHITO CHIBA, SEIKEN TOKURA, NAOAKI KAWAKAMI
     UNIVERSITY OF AARHUS: FRANK JENSEN
     UNIVERSITY OF IOWA: VISVALDAS KAIRYS, HUI LI
     NATIONAL INST. OF STANDARDS AND TECHNOLOGY: WALT STEVENS, DAVID GARMER
     UNIVERSITY OF PISA: BENEDETTA MENNUCCI, JACOPO TOMASI
     UNIVERSITY OF MEMPHIS: HENRY KURTZ, PRAKASHAN KORAMBATH
     UNIVERSITY OF ALBERTA: TOBY ZENG, MARIUSZ KLOBUKOWSKI
     UNIVERSITY OF NEW ENGLAND: MARK SPACKMAN
     MIE UNIVERSITY: HIROAKI UMEDA
     MICHIGAN STATE UNIVERSITY:
          KAROL KOWALSKI, MARTA WLOCH, JEFFREY GOUR, JESSE LUTZ, PIOTR PIECUCH
     UNIVERSITY OF SILESIA: MONIKA MUSIAL, STANISLAW KUCHARSKI
     FACULTES UNIVERSITAIRES NOTRE-DAME DE LA PAIX:
          OLIVIER QUINET, BENOIT CHAMPAGNE
     UNIVERSITY OF CALIFORNIA - SANTA BARBARA: BERNARD KIRTMAN
     INSTITUTE FOR MOLECULAR SCIENCE:
          KAZUYA ISHIMURA, MICHIO KATOUDA, AND SHIGERU NAGASE
     UNIVERSITY OF NOTRE DAME: DAN CHIPMAN
     KYUSHU UNIVERSITY:
          HARUYUKI NAKANO,
          FENG LONG GU, JACEK KORCHOWIEC, MARCIN MAKOWSKI, AND YURIKO AOKI,
          HIROTOSHI MORI AND EISAKU MIYOSHI
     PENNSYLVANIA STATE UNIVERSITY:
          TZVETELIN IORDANOV, CHET SWALINA, JONATHAN SKONE,
          SHARON HAMMES-SCHIFFER
     WASEDA UNIVERSITY:
          MASATO KOBAYASHI, TOMOKO AKAMA, TSUGUKI TOUMA,
          TAKESHI YOSHIKAWA, YASUHIRO IKABATA, HIROMI NAKAI
     UNIVERSITY OF NEBRASKA:
          PEIFENG SU, DEJUN SI, NANDUN THELLAMUREGE, YALI WANG, HUI LI
     UNIVERSITY OF ZURICH:
          ROBERTO PEVERATI, KIM BALDRIDGE
     N. COPERNICUS UNIVERSITY AND JACKSON STATE UNIVERSITY:
          MARIA BARYSZ

 EXECUTION OF GAMESS BEGUN Thu Feb 26 00:13:12 2015

            ECHO OF THE FIRST FEW INPUT CARDS -
 INPUT CARD> $BASIS GBASIS=PC1 $END                                                         
 INPUT CARD> $CONTRL COORD=ZMT ISPHER=1 RUNTYP=ENERGY DFTTYP=PBE $END                       
 INPUT CARD>                                                                                
 INPUT CARD> $DATA                                                                          
 INPUT CARD>Title                                                                           
 INPUT CARD>Cnv 2                                                                           
 INPUT CARD>                                                                                
 INPUT CARD>S                                                                               
 INPUT CARD>O 1 1.20                                                                        
 INPUT CARD>O 1 1.20 2 140.0                                                                
 INPUT CARD> $END                                                                           
    1000000 WORDS OF MEMORY AVAILABLE

     BASIS OPTIONS
     -------------
     GBASIS=PC1          IGAUSS=       0      POLAR=NONE    
     NDFUNC=       0     NFFUNC=       0     DIFFSP=       F
     NPFUNC=       0      DIFFS=       F     BASNAM=        


     RUN TITLE
     ---------
 Title                                                                           

 THE POINT GROUP OF THE MOLECULE IS CNV     
 THE ORDER OF THE PRINCIPAL AXIS IS     2

 YOUR FULLY SUBSTITUTED Z-MATRIX IS
 S   
 O      1   1.2000000
 O      1   1.2000000  2  140.0000

 THE MOMENTS OF INERTIA ARE (AMU-ANGSTROM**2)
 IXX=     2.694   IYY=    40.677   IZZ=    43.370

 ATOM      ATOMIC                      COORDINATES (BOHR)
           CHARGE         X                   Y                   Z
 S          16.0     0.0000000000        0.0000000000       -0.3879022284
 O           8.0    -2.1309138792        0.0000000000        0.3876869954
 O           8.0     2.1309138792        0.0000000000        0.3876869954

          INTERNUCLEAR DISTANCES (ANGS.)
          ------------------------------

                1 S          2 O          3 O     

   1 S       0.0000000    1.2000000 *  1.2000000 *
   2 O       1.2000000 *  0.0000000    2.2552623 *
   3 O       1.2000000 *  2.2552623 *  0.0000000  

  * ... LESS THAN  3.000


     ATOMIC BASIS SET
     ----------------
 THE CONTRACTED PRIMITIVE FUNCTIONS HAVE BEEN UNNORMALIZED
 THE CONTRACTED BASIS FUNCTIONS ARE NOW NORMALIZED TO UNITY

  SHELL TYPE  PRIMITIVE        EXPONENT          CONTRACTION COEFFICIENT(S)

 S         

      1   S       1         55510.0000000    0.000587229760
      1   S       2          8326.7000000    0.004532413947
      1   S       3          1895.6000000    0.023265261648
      1   S       4           536.7700000    0.089696133027
      1   S       5           174.6700000    0.254098332277
      1   S       6            62.5780000    0.438665087637
      1   S       7            23.5730000    0.314547135094
      1   S       8             5.8908000    0.032727897102

      2   S       9          8326.7000000   -0.000019755715
      2   S      10          1895.6000000   -0.000043822381
      2   S      11           536.7700000   -0.001730264906
      2   S      12           174.6700000   -0.009381263460
      2   S      13            62.5780000   -0.064050766303
      2   S      14            23.5730000   -0.082478179196
      2   S      15             5.8908000    0.478342956889
      2   S      16             2.1852000    0.626896670208

      3   S      17          1895.6000000    0.000016227260
      3   S      18           536.7700000    0.000191135619
      3   S      19           174.6700000    0.001952069674
      3   S      20            62.5780000    0.010578701087
      3   S      21            23.5730000    0.022164934551
      3   S      22             5.8908000   -0.184968323118
      3   S      23             2.1852000   -0.480920750976
      3   S      24             0.4528200    1.243822243872

      4   S      25             0.1620200    1.000000000000

      5   P      26           395.4500000    0.004642761329
      5   P      27            92.8340000    0.036023396489
      5   P      28            29.2660000    0.149058869978
      5   P      29            10.5950000    0.360033266263
      5   P      30             4.0272000    0.455756476221
      5   P      31             1.5484000    0.206167664178

      6   P      32            92.8340000    0.000169901442
      6   P      33            29.2660000   -0.002541839934
      6   P      34            10.5950000   -0.007867614595
      6   P      35             4.0272000   -0.037231009184
      6   P      36             1.5484000    0.161417246830
      6   P      37             0.4613400    0.902230419976

      7   P      38             0.1313100    1.000000000000

      8   D      39             0.5500000    1.000000000000

 O         

     15   S      40          2306.7000000    0.005424388755
     15   S      41           347.1500000    0.040474749465
     15   S      42            78.8900000    0.180219634554
     15   S      43            21.8760000    0.462370311787
     15   S      44             6.6646000    0.454888396263

     16   S      45           347.1500000   -0.000655003786
     16   S      46            78.8900000   -0.005362052952
     16   S      47            21.8760000   -0.074902158894
     16   S      48             6.6646000   -0.181442579655
     16   S      49             1.0669000    1.102006874042

     17   S      50             0.3070000    1.000000000000

     18   P      51            17.0220000    0.068979967443
     18   P      52             3.6838000    0.351985516325
     18   P      53             0.9923400    0.724036547822

     19   P      54             0.2448700    1.000000000000

     20   D      55             1.0000000    1.000000000000

 TOTAL NUMBER OF BASIS SET SHELLS             =   20
 NUMBER OF CARTESIAN GAUSSIAN BASIS FUNCTIONS =   49
 NOTE: THIS RUN WILL RESTRICT THE MO VARIATION SPACE TO SPHERICAL HARMONICS.
 THE NUMBER OF ORBITALS KEPT IN THE VARIATIONAL SPACE WILL BE PRINTED LATER.
 NUMBER OF ELECTRONS                          =   32
 CHARGE OF MOLECULE                           =    0
 SPIN MULTIPLICITY                            =    1
 NUMBER OF OCCUPIED ORBITALS (ALPHA)          =   16
 NUMBER OF OCCUPIED ORBITALS (BETA )          =   16
 TOTAL NUMBER OF ATOMS                        =    3
 THE NUCLEAR REPULSION ENERGY IS      127.9081776070

     LEBEDEV GRID-BASED DFT OPTIONS
     ------------------------------
     DFTTYP=PBE     
     NRAD  =      96     NLEB  =     302
     NRAD0 =      24     NLEB0 =     110
     SWOFF =    5.00E-03 (PURE SCF -> DFT)
     SWITCH=    3.00E-04 (COARSE -> TIGHT GRID)
     THRESH=    0.00E+00 GTHRE=    1.00E+00

 GRIMME'S EMPIRICAL DISPERSION CORRECTION= F

     $CONTRL OPTIONS
     ---------------
 SCFTYP=RHF          RUNTYP=ENERGY       EXETYP=RUN     
 MPLEVL=       0     CITYP =NONE         CCTYP =NONE         VBTYP =NONE    
 DFTTYP=PBE          TDDFT =NONE    
 MULT  =       1     ICHARG=       0     NZVAR =       0     COORD =ZMT     
 PP    =NONE         RELWFN=NONE         LOCAL =NONE         NUMGRD=       F
 ISPHER=       1     NOSYM =       0     MAXIT =      30     UNITS =ANGS    
 PLTORB=       F     MOLPLT=       F     AIMPAC=       F     FRIEND=        
 NPRINT=       7     IREST =       0     GEOM  =INPUT   
 NORMF =       0     NORMP =       0     ITOL  =      20     ICUT  =       9
 INTTYP=BEST         GRDTYP=BEST         QMTTOL= 1.0E-06

     $SYSTEM OPTIONS
     ---------------
  REPLICATED MEMORY=     1000000 WORDS (ON EVERY NODE).
 DISTRIBUTED MEMDDI=           0 MILLION WORDS IN AGGREGATE,
 MEMDDI DISTRIBUTED OVER   1 PROCESSORS IS           0 WORDS/PROCESSOR.
 TOTAL MEMORY REQUESTED ON EACH PROCESSOR=     1000000 WORDS.
 TIMLIM=      525600.00 MINUTES, OR     365.0 DAYS.
 PARALL= F  BALTYP=  DLB     KDIAG=    0  COREFL= F
 MXSEQ2=     300 MXSEQ3=     150

          ----------------
          PROPERTIES INPUT
          ----------------

     MOMENTS            FIELD           POTENTIAL          DENSITY
 IEMOM =       1   IEFLD =       0   IEPOT =       0   IEDEN =       0
 WHERE =COMASS     WHERE =NUCLEI     WHERE =NUCLEI     WHERE =NUCLEI  
 OUTPUT=BOTH       OUTPUT=BOTH       OUTPUT=BOTH       OUTPUT=BOTH    
 IEMINT=       0   IEFINT=       0                     IEDINT=       0
                                                       MORB  =       0
          EXTRAPOLATION IN EFFECT
          DIIS IN EFFECT
 ORBITAL PRINTING OPTION: NPREO=     1    49     2     1

     -------------------------------
     INTEGRAL TRANSFORMATION OPTIONS
     -------------------------------
     NWORD  =            0
     CUTOFF = 1.0E-09     MPTRAN =       0
     DIRTRF =       F     AOINTS =DUP     

          ----------------------
          INTEGRAL INPUT OPTIONS
          ----------------------
 NOPK  =       1 NORDER=       0 SCHWRZ=       F

   --- ENCODED Z MATRIX ---
 COORD  TYPE   I   J   K   L   M   N
    1      1    3   1
    2      1    2   1
    3      2    2   1   3

 THE DETERMINANT OF THE G MATRIX IS 10**(    -4)

 THE DETERMINANT OF THE G MATRIX IS 10**(    -4)
 * * * WARNING * * *
 YOUR B MATRIX HAS A SMALL DETERMINANT.
 THIS SUGGESTS YOU MAY HAVE BADLY CHOSEN COORDINATES.

     ------------------------------------------
     THE POINT GROUP IS CNV, NAXIS= 2, ORDER= 4
     ------------------------------------------

 -- VARIATIONAL SPACE WILL BE RESTRICTED TO PURE SPHERICAL HARMONICS ONLY --
 AFTER EXCLUDING CONTAMINANT COMBINATIONS FROM THE CARTESIAN GAUSSIAN BASIS
 SET, THE NUMBER OF SPHERICAL HARMONICS KEPT IN THE VARIATION SPACE IS   46

     DIMENSIONS OF THE SYMMETRY SUBSPACES ARE
 A1  =   19     A2  =    5     B1  =   14     B2  =    8

 ..... DONE SETTING UP THE RUN .....
 STEP CPU TIME =     0.01 TOTAL CPU TIME =        0.0 (    0.0 MIN)
 TOTAL WALL CLOCK TIME=        0.0 SECONDS, CPU UTILIZATION IS  50.00%

          ********************
          1 ELECTRON INTEGRALS
          ********************
 ...... END OF ONE-ELECTRON INTEGRALS ......
 STEP CPU TIME =     0.00 TOTAL CPU TIME =        0.0 (    0.0 MIN)
 TOTAL WALL CLOCK TIME=        0.0 SECONDS, CPU UTILIZATION IS  50.00%

          -------------
          GUESS OPTIONS
          -------------
          GUESS =HUCKEL            NORB  =       0          NORDER=       0
          MIX   =       F          PRTMO =       F          PUNMO =       F
          TOLZ  = 1.0E-08          TOLE  = 1.0E-05
          SYMDEN=       F          PURIFY=       F

 INITIAL GUESS ORBITALS GENERATED BY HUCKEL   ROUTINE.
 HUCKEL GUESS REQUIRES     21583 WORDS.

 STATISTICS FOR GENERATION OF SYMMETRY ORBITAL -Q- MATRIX
 NUMBER OF CARTESIAN ATOMIC ORBITALS=         49
 NUMBER OF SPHERICAL CONTAMINANTS DROPPED=     3
 NUMBER OF LINEARLY DEPENDENT MOS DROPPED=     0
 TOTAL NUMBER OF MOS IN VARIATION SPACE=      46

 SYMMETRIES FOR INITIAL GUESS ORBITALS FOLLOW.   BOTH SET(S).
    16 ORBITALS ARE OCCUPIED (    7 CORE ORBITALS).
     8=?A1      9=?B1     10=A1      11=B2      12=A1      13=B1      14=A2  
    15=B1      16=A1      17=B2      18=A1      19=B1      20=A1      21=A1  
    22=A1      23=A1      24=A1      25=A1      26=A1  
 ...... END OF INITIAL ORBITAL SELECTION ......
 STEP CPU TIME =     0.00 TOTAL CPU TIME =        0.0 (    0.0 MIN)
 TOTAL WALL CLOCK TIME=        0.0 SECONDS, CPU UTILIZATION IS  33.33%

                    ----------------------
                    AO INTEGRAL TECHNOLOGY
                    ----------------------
     S,P,L SHELL ROTATED AXIS INTEGRALS, REPROGRAMMED BY
        KAZUYA ISHIMURA (IMS) AND JOSE SIERRA (SYNSTAR).
     S,P,D,L SHELL ROTATED AXIS INTEGRALS PROGRAMMED BY
        KAZUYA ISHIMURA (INSTITUTE FOR MOLECULAR SCIENCE).
     S,P,D,F,G SHELL TO TOTAL QUARTET ANGULAR MOMENTUM SUM 5,
        ERIC PROGRAM BY GRAHAM FLETCHER (ELORET AND NASA ADVANCED
        SUPERCOMPUTING DIVISION, AMES RESEARCH CENTER).
     S,P,D,F,G,L SHELL GENERAL RYS QUADRATURE PROGRAMMED BY
        MICHEL DUPUIS (PACIFIC NORTHWEST NATIONAL LABORATORY).

          --------------------
          2 ELECTRON INTEGRALS
          --------------------

 THE -PK- OPTION IS OFF, THE INTEGRALS ARE NOT IN SUPERMATRIX FORM.
 STORING   15000 INTEGRALS/RECORD ON DISK, USING 12 BYTES/INTEGRAL.
 TWO ELECTRON INTEGRAL EVALUATION REQUIRES   90606 WORDS OF MEMORY.
 II,JST,KST,LST =  1  1  1  1 NREC =         1 INTLOC =    1
 II,JST,KST,LST =  2  1  1  1 NREC =         1 INTLOC =    2
 II,JST,KST,LST =  3  1  1  1 NREC =         1 INTLOC =    7
 II,JST,KST,LST =  4  1  1  1 NREC =         1 INTLOC =   22
 II,JST,KST,LST =  5  1  1  1 NREC =         1 INTLOC =   56
 II,JST,KST,LST =  6  1  1  1 NREC =         1 INTLOC =  125
 II,JST,KST,LST =  7  1  1  1 NREC =         1 INTLOC =  329
 II,JST,KST,LST =  8  1  1  1 NREC =         1 INTLOC =  776
 II,JST,KST,LST =  9  1  1  1 NREC =         1 INTLOC = 2864
 II,JST,KST,LST = 10  1  1  1 NREC =         1 INTLOC = 2864
 II,JST,KST,LST = 11  1  1  1 NREC =         1 INTLOC = 2864
 II,JST,KST,LST = 12  1  1  1 NREC =         1 INTLOC = 2864
 II,JST,KST,LST = 13  1  1  1 NREC =         1 INTLOC = 2864
 II,JST,KST,LST = 14  1  1  1 NREC =         1 INTLOC = 2864
 II,JST,KST,LST = 15  1  1  1 NREC =         1 INTLOC = 2864
 II,JST,KST,LST = 16  1  1  1 NREC =         1 INTLOC = 5170
 II,JST,KST,LST = 17  1  1  1 NREC =         1 INTLOC = 8482
 II,JST,KST,LST = 18  1  1  1 NREC =         1 INTLOC =12955
 II,JST,KST,LST = 19  1  1  1 NREC =         3 INTLOC = 1167
 II,JST,KST,LST = 20  1  1  1 NREC =         5 INTLOC = 2548
 TOTAL NUMBER OF NONZERO TWO-ELECTRON INTEGRALS =              181062
         13 INTEGRAL RECORDS WERE STORED ON DISK FILE  8.
  ...... END OF TWO-ELECTRON INTEGRALS .....
 STEP CPU TIME =     0.17 TOTAL CPU TIME =        0.2 (    0.0 MIN)
 TOTAL WALL CLOCK TIME=        0.2 SECONDS, CPU UTILIZATION IS  94.74%

          --------------------------
               R-PBE SCF CALCULATION
          --------------------------

     NUCLEAR ENERGY =       127.9081776070
     MAXIT =   30     NPUNCH=    2
     EXTRAP=T  DAMP=F  SHIFT=F  RSTRCT=F  DIIS=T  DEM=F  SOSCF=F
         DENSITY MATRIX CONVERGENCE THRESHOLD=  1.00E-05
     COARSE -> FINE DFT GRID SWITCH THRESHOLD=  3.00E-04 (SWITCH IN $DFT)
                   HF -> DFT SWITCH THRESHOLD=  5.00E-03 (SWOFF IN $DFT)
     MEMORY REQUIRED FOR RHF ITERS=    183108 WORDS.

 DFT CODE IS SWITCHING FROM THE FINE GRID NRAD= 96,  NLEB=  302
                      TO THE COARSE GRID NRAD0= 24, NLEB0=  110

     EXCHANGE FUNCTIONAL   =PBE       
     CORRELATION FUNCTIONAL=PBE       
     DFT THRESHOLD         =.460E-07
     GRID CHANGE THRESHOLD =.300E-03
 FOR AN EULER-MACLAURIN QUADRATURE USING  96 RADIAL POINTS:
 SMALLEST GAUSSIAN PRIMITIVE EXPONENT=        0.1313100000 OF TYPE -P-
 ON ATOM NUMBER   1 HAS RADIAL NORMALIZATION=  1.000000
  LARGEST GAUSSIAN PRIMITIVE EXPONENT=    55510.0000000000 OF TYPE -S-
 ON ATOM NUMBER   1 HAS RADIAL NORMALIZATION=  0.999999
 DFT IS SWITCHED OFF, PERFORMING PURE SCF UNTIL SWOFF THRESHOLD IS REACHED.

 ITER EX DEM     TOTAL ENERGY        E CHANGE  DENSITY CHANGE    DIIS ERROR
   1  0  0     -545.5668546672  -545.5668546672   0.509088429   1.320423016
          * * *   INITIATING DIIS PROCEDURE   * * *
   2  1  0     -546.7253264092    -1.1584717419   0.768387154   0.179736579
   3  2  0     -546.8263160570    -0.1009896478   0.087988019   0.091260337
   4  3  0     -546.8515866201    -0.0252705631   0.147587778   0.023901977
   5  4  0     -546.8550193151    -0.0034326950   0.079906603   0.008339877
   6  5  0     -546.8555641958    -0.0005448807   0.017582337   0.001899895
   7  6  0     -546.8556010371    -0.0000368414   0.000799577   0.000177864
 CONVERGED TO SWOFF, SO DFT CALCULATION IS NOW SWITCHED ON.
          * * *   INITIATING DIIS PROCEDURE   * * *
   8  7  0     -547.8974499409    -1.0418489038   0.160412491   0.096006386
   9  8  0     -547.9137039192    -0.0162539783   0.079260918   0.040463317
  10  9  0     -547.9132330919     0.0004708273   0.033181718   0.041992731
  11 10  0     -547.9183960224    -0.0051629305   0.012173563   0.006916672
  12 11  0     -547.9184908518    -0.0000948293   0.000630621   0.000513432
  13 12  0     -547.9184912409    -0.0000003891   0.000077096   0.000018534
 DFT CODE IS SWITCHING BACK TO THE FINE GRID
          * * *   INITIATING DIIS PROCEDURE   * * *
  14 13  0     -547.9216601314    -0.0031688905   0.011769152   0.006646756
  15 14  0     -547.9217418897    -0.0000817583   0.004813036   0.005144575
  16 15  0     -547.9217679113    -0.0000260216   0.001921705   0.003522700
  17 16  0     -547.9217915157    -0.0000236044   0.001029939   0.000208687
  18 17  0     -547.9217916117    -0.0000000960   0.000061157   0.000040869
  19 18  0     -547.9217916174    -0.0000000057   0.000030835   0.000003648
  20 19  0     -547.9217916175     0.0000000000   0.000007678   0.000001030
  21 20  0     -547.9217916175     0.0000000000   0.000000135   0.000000094

          -----------------
          DENSITY CONVERGED
          -----------------
     TIME TO FORM FOCK OPERATORS=       4.4 SECONDS (       0.2 SEC/ITER)
     TIME TO SOLVE SCF EQUATIONS=       0.0 SECONDS (       0.0 SEC/ITER)

 FINAL R-PBE ENERGY IS     -547.9217916175 AFTER  21 ITERATIONS
 DFT EXCHANGE + CORRELATION ENERGY =       -43.0528875650
 TOTAL ELECTRON NUMBER             =        31.9999976042

          ------------
          EIGENVECTORS
          ------------

                      1          2          3          4          5
                  -88.1532   -18.7723   -18.7722    -7.8060    -5.8300
                     A1         B1         A1         A1         B1  
    1  S  1  S    1.002988   0.000000  -0.000074  -0.273762   0.000000
    2  S  1  S   -0.010142   0.000000   0.000618   1.039239   0.000000
    3  S  1  S    0.002155   0.000000  -0.000529   0.043746   0.000000
    4  S  1  S   -0.000206   0.000000   0.010948  -0.006905   0.000000
    5  S  1  X    0.000000  -0.000370   0.000000   0.000000   0.994289
    6  S  1  Y    0.000000   0.000000   0.000000   0.000000   0.000000
    7  S  1  Z    0.000059   0.000000  -0.000005   0.016145   0.000000
    8  S  1  X    0.000000   0.001386   0.000000   0.000000   0.013185
    9  S  1  Y    0.000000   0.000000   0.000000   0.000000   0.000000
   10  S  1  Z    0.000199   0.000000   0.000465   0.002837   0.000000
   11  S  1  X    0.000000  -0.007028   0.000000   0.000000  -0.000265
   12  S  1  Y    0.000000   0.000000   0.000000   0.000000   0.000000
   13  S  1  Z    0.000045   0.000000   0.003786  -0.000139   0.000000
   14  S  1 XX    0.000382   0.000000  -0.002341   0.003475   0.000000
   15  S  1 YY   -0.000209   0.000000   0.000928  -0.001793   0.000000
   16  S  1 ZZ   -0.000172   0.000000   0.001413  -0.001682   0.000000
   17  S  1 XY    0.000000   0.000000   0.000000   0.000000   0.000000
   18  S  1 XZ    0.000000   0.002072   0.000000   0.000000   0.002910
   19  S  1 YZ    0.000000   0.000000   0.000000   0.000000   0.000000
   20  O  2  S    0.000009   0.703187   0.703221  -0.001146   0.002384
   21  O  2  S   -0.000036   0.027156   0.027303   0.000265  -0.002669
   22  O  2  S   -0.000532  -0.013514  -0.014154  -0.003340   0.000923
   23  O  2  X   -0.000179   0.001952   0.001938   0.000603  -0.003831
   24  O  2  Y    0.000000   0.000000   0.000000   0.000000   0.000000
   25  O  2  Z    0.000083  -0.000520  -0.000550  -0.000078   0.001805
   26  O  2  X   -0.000352  -0.001439  -0.003893  -0.002852   0.000857
   27  O  2  Y    0.000000   0.000000   0.000000   0.000000   0.000000
   28  O  2  Z    0.000167   0.001813  -0.000330   0.001414   0.000122
   29  O  2 XX   -0.000069   0.000581  -0.000156   0.001200  -0.001524
   30  O  2 YY    0.000062  -0.000090  -0.000127  -0.000590   0.001177
   31  O  2 ZZ    0.000008  -0.000491   0.000283  -0.000611   0.000347
   32  O  2 XY    0.000000   0.000000   0.000000   0.000000   0.000000
   33  O  2 XZ    0.000097   0.000133  -0.000504  -0.000460   0.001686
   34  O  2 YZ    0.000000   0.000000   0.000000   0.000000   0.000000
   35  O  3  S    0.000009  -0.703187   0.703221  -0.001146  -0.002384
   36  O  3  S   -0.000036  -0.027156   0.027303   0.000265   0.002669
   37  O  3  S   -0.000532   0.013514  -0.014154  -0.003340  -0.000923
   38  O  3  X    0.000179   0.001952  -0.001938  -0.000603  -0.003831
   39  O  3  Y    0.000000   0.000000   0.000000   0.000000   0.000000
   40  O  3  Z    0.000083   0.000520  -0.000550  -0.000078  -0.001805
   41  O  3  X    0.000352  -0.001439   0.003893   0.002852   0.000857
   42  O  3  Y    0.000000   0.000000   0.000000   0.000000   0.000000
   43  O  3  Z    0.000167  -0.001813  -0.000330   0.001414  -0.000122
   44  O  3 XX   -0.000069  -0.000581  -0.000156   0.001200   0.001524
   45  O  3 YY    0.000062   0.000090  -0.000127  -0.000590  -0.001177
   46  O  3 ZZ    0.000008   0.000491   0.000283  -0.000611  -0.000347
   47  O  3 XY    0.000000   0.000000   0.000000   0.000000   0.000000
   48  O  3 XZ   -0.000097   0.000133   0.000504   0.000460   0.001686
   49  O  3 YZ    0.000000   0.000000   0.000000   0.000000   0.000000

                      6          7          8          9         10
                   -5.8204    -5.8144    -1.1870    -1.0836    -0.5252
                     B2         A1         A1         B1         B2  
    1  S  1  S    0.000000   0.004854   0.061051   0.000000   0.000000
    2  S  1  S    0.000000  -0.018119  -0.190913   0.000000   0.000000
    3  S  1  S    0.000000   0.001147   0.319158   0.000000   0.000000
    4  S  1  S    0.000000  -0.000745   0.084832   0.000000   0.000000
    5  S  1  X    0.000000   0.000000   0.000000  -0.207081   0.000000
    6  S  1  Y    0.996382   0.000000   0.000000   0.000000  -0.205628
    7  S  1  Z    0.000000   0.996119  -0.070137   0.000000   0.000000
    8  S  1  X    0.000000   0.000000   0.000000   0.342182   0.000000
    9  S  1  Y    0.010311   0.000000   0.000000   0.000000   0.453098
   10  S  1  Z    0.000000   0.010171   0.110983   0.000000   0.000000
   11  S  1  X    0.000000   0.000000   0.000000   0.002690   0.000000
   12  S  1  Y   -0.000614   0.000000   0.000000   0.000000   0.147116
   13  S  1  Z    0.000000  -0.000532  -0.011699   0.000000   0.000000
   14  S  1 XX    0.000000  -0.000699   0.077349   0.000000   0.000000
   15  S  1 YY    0.000000  -0.000803  -0.045523   0.000000   0.000000
   16  S  1 ZZ    0.000000   0.001502  -0.031826   0.000000   0.000000
   17  S  1 XY    0.000000   0.000000   0.000000   0.000000   0.000000
   18  S  1 XZ    0.000000   0.000000   0.000000   0.082758   0.000000
   19  S  1 YZ    0.001264   0.000000   0.000000   0.000000   0.059646
   20  O  2  S    0.000000  -0.000820  -0.127197   0.146414   0.000000
   21  O  2  S    0.000000   0.001150   0.236430  -0.277834   0.000000
   22  O  2  S    0.000000   0.000284   0.225450  -0.263323   0.000000
   23  O  2  X    0.000000   0.001805   0.148369  -0.141478   0.000000
   24  O  2  Y    0.000627   0.000000   0.000000   0.000000   0.337963
   25  O  2  Z    0.000000  -0.000050  -0.039767   0.052520   0.000000
   26  O  2  X    0.000000  -0.000179   0.038821  -0.016278   0.000000
   27  O  2  Y   -0.000123   0.000000   0.000000   0.000000   0.177112
   28  O  2  Z    0.000000  -0.000166  -0.000726   0.011837   0.000000
   29  O  2 XX    0.000000   0.000897   0.021432  -0.013437   0.000000
   30  O  2 YY    0.000000  -0.000285  -0.009535   0.009467   0.000000
   31  O  2 ZZ    0.000000  -0.000612  -0.011897   0.003970   0.000000
   32  O  2 XY    0.000571   0.000000   0.000000   0.000000   0.030511
   33  O  2 XZ    0.000000  -0.000010  -0.007236   0.014222   0.000000
   34  O  2 YZ   -0.000299   0.000000   0.000000   0.000000  -0.009565
   35  O  3  S    0.000000  -0.000820  -0.127197  -0.146414   0.000000
   36  O  3  S    0.000000   0.001150   0.236430   0.277834   0.000000
   37  O  3  S    0.000000   0.000284   0.225450   0.263323   0.000000
   38  O  3  X    0.000000  -0.001805  -0.148369  -0.141478   0.000000
   39  O  3  Y    0.000627   0.000000   0.000000   0.000000   0.337963
   40  O  3  Z    0.000000  -0.000050  -0.039767  -0.052520   0.000000
   41  O  3  X    0.000000   0.000179  -0.038821  -0.016278   0.000000
   42  O  3  Y   -0.000123   0.000000   0.000000   0.000000   0.177112
   43  O  3  Z    0.000000  -0.000166  -0.000726  -0.011837   0.000000
   44  O  3 XX    0.000000   0.000897   0.021432   0.013437   0.000000
   45  O  3 YY    0.000000  -0.000285  -0.009535  -0.009467   0.000000
   46  O  3 ZZ    0.000000  -0.000612  -0.011897  -0.003970   0.000000
   47  O  3 XY   -0.000571   0.000000   0.000000   0.000000  -0.030511
   48  O  3 XZ    0.000000   0.000010   0.007236   0.014222   0.000000
   49  O  3 YZ   -0.000299   0.000000   0.000000   0.000000  -0.009565

                     11         12         13         14         15
                   -0.5218    -0.5057    -0.4481    -0.3974    -0.3761
                     A1         A1         B1         A2         B1  
    1  S  1  S    0.045816   0.023809   0.000000   0.000000   0.000000
    2  S  1  S   -0.123508  -0.057863   0.000000   0.000000   0.000000
    3  S  1  S    0.294193   0.159295   0.000000   0.000000   0.000000
    4  S  1  S    0.205828  -0.010547   0.000000   0.000000   0.000000
    5  S  1  X    0.000000   0.000000   0.159639   0.000000   0.001766
    6  S  1  Y    0.000000   0.000000   0.000000   0.000000   0.000000
    7  S  1  Z    0.124302  -0.145402   0.000000   0.000000   0.000000
    8  S  1  X    0.000000   0.000000  -0.332544   0.000000  -0.005703
    9  S  1  Y    0.000000   0.000000   0.000000   0.000000   0.000000
   10  S  1  Z   -0.269432   0.316458   0.000000   0.000000   0.000000
   11  S  1  X    0.000000   0.000000   0.048502   0.000000   0.059042
   12  S  1  Y    0.000000   0.000000   0.000000   0.000000   0.000000
   13  S  1  Z   -0.119846   0.065338   0.000000   0.000000   0.000000
   14  S  1 XX    0.044383  -0.083658   0.000000   0.000000   0.000000
   15  S  1 YY    0.015524   0.007161   0.000000   0.000000   0.000000
   16  S  1 ZZ   -0.059908   0.076497   0.000000   0.000000   0.000000
   17  S  1 XY    0.000000   0.000000   0.000000  -0.187507   0.000000
   18  S  1 XZ    0.000000   0.000000  -0.013268   0.000000  -0.176905
   19  S  1 YZ    0.000000   0.000000   0.000000   0.000000   0.000000
   20  O  2  S    0.069529   0.072757   0.066022   0.000000   0.004398
   21  O  2  S   -0.145376  -0.144707  -0.137079   0.000000  -0.021764
   22  O  2  S   -0.259789  -0.242819  -0.267521   0.000000  -0.026001
   23  O  2  X    0.114832   0.306098   0.339773   0.000000   0.263158
   24  O  2  Y    0.000000   0.000000   0.000000   0.456442   0.000000
   25  O  2  Z   -0.275328   0.165725  -0.230473   0.000000   0.382790
   26  O  2  X    0.056630   0.172863   0.159156   0.000000   0.152959
   27  O  2  Y    0.000000   0.000000   0.000000   0.286652   0.000000
   28  O  2  Z   -0.135920   0.088133  -0.132663   0.000000   0.246329
   29  O  2 XX    0.000082   0.023312   0.015503   0.000000   0.020028
   30  O  2 YY   -0.005417  -0.008955  -0.012715   0.000000  -0.004570
   31  O  2 ZZ    0.005335  -0.014356  -0.002787   0.000000  -0.015458
   32  O  2 XY    0.000000   0.000000   0.000000   0.023201   0.000000
   33  O  2 XZ   -0.020179   0.007410  -0.020285   0.000000   0.018749
   34  O  2 YZ    0.000000   0.000000   0.000000  -0.005852   0.000000
   35  O  3  S    0.069529   0.072757  -0.066022   0.000000  -0.004398
   36  O  3  S   -0.145376  -0.144707   0.137079   0.000000   0.021764
   37  O  3  S   -0.259789  -0.242819   0.267521   0.000000   0.026001
   38  O  3  X   -0.114832  -0.306098   0.339773   0.000000   0.263158
   39  O  3  Y    0.000000   0.000000   0.000000  -0.456442   0.000000
   40  O  3  Z   -0.275328   0.165725   0.230473   0.000000  -0.382790
   41  O  3  X   -0.056630  -0.172863   0.159156   0.000000   0.152959
   42  O  3  Y    0.000000   0.000000   0.000000  -0.286652   0.000000
   43  O  3  Z   -0.135920   0.088133   0.132663   0.000000  -0.246329
   44  O  3 XX    0.000082   0.023312  -0.015503   0.000000  -0.020028
   45  O  3 YY   -0.005417  -0.008955   0.012715   0.000000   0.004570
   46  O  3 ZZ    0.005335  -0.014356   0.002787   0.000000   0.015458
   47  O  3 XY    0.000000   0.000000   0.000000   0.023201   0.000000
   48  O  3 XZ    0.020179  -0.007410  -0.020285   0.000000   0.018749
   49  O  3 YZ    0.000000   0.000000   0.000000   0.005852   0.000000

                     16         17         18         19         20
                   -0.2151    -0.0485     0.0724     0.2013     0.3410
                     A1         B2         A1         B1         B2  
    1  S  1  S    0.024773   0.000000   0.004348   0.000000   0.000000
    2  S  1  S   -0.134901   0.000000  -0.117875   0.000000   0.000000
    3  S  1  S    0.088838   0.000000  -0.093756   0.000000   0.000000
    4  S  1  S    1.001218   0.000000   1.374732   0.000000   0.000000
    5  S  1  X    0.000000   0.000000   0.000000  -0.041493   0.000000
    6  S  1  Y    0.000000  -0.201799   0.000000   0.000000   0.292911
    7  S  1  Z    0.136737   0.000000  -0.125602   0.000000   0.000000
    8  S  1  X    0.000000   0.000000   0.000000   0.162633   0.000000
    9  S  1  Y    0.000000   0.536531   0.000000   0.000000  -1.109953
   10  S  1  Z   -0.307604   0.000000   0.370596   0.000000   0.000000
   11  S  1  X    0.000000   0.000000   0.000000   1.958250   0.000000
   12  S  1  Y    0.000000   0.756453   0.000000   0.000000   1.182701
   13  S  1  Z   -0.162184   0.000000   1.045004   0.000000   0.000000
   14  S  1 XX   -0.218918   0.000000  -0.138976   0.000000   0.000000
   15  S  1 YY    0.110563   0.000000   0.194442   0.000000   0.000000
   16  S  1 ZZ    0.108354   0.000000  -0.055467   0.000000   0.000000
   17  S  1 XY    0.000000   0.000000   0.000000   0.000000   0.000000
   18  S  1 XZ    0.000000   0.000000   0.000000  -0.098676   0.000000
   19  S  1 YZ    0.000000  -0.081556   0.000000   0.000000  -0.128121
   20  O  2  S    0.036141   0.000000   0.057609  -0.072698   0.000000
   21  O  2  S   -0.059191   0.000000  -0.097319   0.090724   0.000000
   22  O  2  S   -0.230497   0.000000  -0.659869   1.135801   0.000000
   23  O  2  X   -0.171931   0.000000  -0.230554  -0.047541   0.000000
   24  O  2  Y    0.000000  -0.383116   0.000000   0.000000   0.005488
   25  O  2  Z    0.292405   0.000000  -0.221001  -0.155371   0.000000
   26  O  2  X   -0.136736   0.000000  -0.363464   0.093871   0.000000
   27  O  2  Y    0.000000  -0.420406   0.000000   0.000000  -0.024146
   28  O  2  Z    0.237970   0.000000  -0.269466  -0.266301   0.000000
   29  O  2 XX   -0.017812   0.000000  -0.018152   0.019989   0.000000
   30  O  2 YY    0.009773   0.000000   0.016419  -0.010108   0.000000
   31  O  2 ZZ    0.008039   0.000000   0.001733  -0.009882   0.000000
   32  O  2 XY    0.000000  -0.005059   0.000000   0.000000  -0.040538
   33  O  2 XZ    0.012312   0.000000   0.009367  -0.014575   0.000000
   34  O  2 YZ    0.000000  -0.002057   0.000000   0.000000   0.009161
   35  O  3  S    0.036141   0.000000   0.057609   0.072698   0.000000
   36  O  3  S   -0.059191   0.000000  -0.097319  -0.090724   0.000000
   37  O  3  S   -0.230497   0.000000  -0.659869  -1.135801   0.000000
   38  O  3  X    0.171931   0.000000   0.230554  -0.047541   0.000000
   39  O  3  Y    0.000000  -0.383116   0.000000   0.000000   0.005488
   40  O  3  Z    0.292405   0.000000  -0.221001   0.155371   0.000000
   41  O  3  X    0.136736   0.000000   0.363464   0.093871   0.000000
   42  O  3  Y    0.000000  -0.420406   0.000000   0.000000  -0.024146
   43  O  3  Z    0.237970   0.000000  -0.269466   0.266301   0.000000
   44  O  3 XX   -0.017812   0.000000  -0.018152  -0.019989   0.000000
   45  O  3 YY    0.009773   0.000000   0.016419   0.010108   0.000000
   46  O  3 ZZ    0.008039   0.000000   0.001733   0.009882   0.000000
   47  O  3 XY    0.000000   0.005059   0.000000   0.000000   0.040538
   48  O  3 XZ   -0.012312   0.000000  -0.009367  -0.014575   0.000000
   49  O  3 YZ    0.000000  -0.002057   0.000000   0.000000   0.009161

                     21         22         23         24         25
                    0.3658     0.4489     0.5508     0.5605     0.5666
                     A1         A1         B2         B1         A1  
    1  S  1  S    0.014502  -0.078223   0.000000   0.000000   0.025263
    2  S  1  S    0.059360  -0.154719   0.000000   0.000000   0.044577
    3  S  1  S    0.234484  -1.031772   0.000000   0.000000   0.333757
    4  S  1  S    0.117359   2.811093   0.000000   0.000000  -0.206522
    5  S  1  X    0.000000   0.000000   0.000000   0.076303   0.000000
    6  S  1  Y    0.000000   0.000000   0.026204   0.000000   0.000000
    7  S  1  Z    0.288985  -0.039253   0.000000   0.000000  -0.003134
    8  S  1  X    0.000000   0.000000   0.000000   0.047450   0.000000
    9  S  1  Y    0.000000   0.000000  -0.116211   0.000000   0.000000
   10  S  1  Z   -1.062493   0.273494   0.000000   0.000000  -0.006489
   11  S  1  X    0.000000   0.000000   0.000000   0.614140   0.000000
   12  S  1  Y    0.000000   0.000000   0.275408   0.000000   0.000000
   13  S  1  Z    1.103183   0.095508   0.000000   0.000000   0.269713
   14  S  1 XX    0.303578   0.551151   0.000000   0.000000  -0.138688
   15  S  1 YY   -0.126820  -0.454010   0.000000   0.000000  -0.751960
   16  S  1 ZZ   -0.176757  -0.097141   0.000000   0.000000   0.890649
   17  S  1 XY    0.000000   0.000000   0.000000   0.000000   0.000000
   18  S  1 XZ    0.000000   0.000000   0.000000   0.771991   0.000000
   19  S  1 YZ    0.000000   0.000000   0.970544   0.000000   0.000000
   20  O  2  S    0.000840   0.026121   0.000000  -0.018711   0.011460
   21  O  2  S    0.043541   0.006701   0.000000  -0.049452  -0.071481
   22  O  2  S   -0.313005  -1.051140   0.000000   0.737111  -0.001487
   23  O  2  X    0.111531   0.275365   0.000000  -0.267422  -0.150419
   24  O  2  Y    0.000000   0.000000  -0.210039   0.000000   0.000000
   25  O  2  Z    0.006626  -0.103543   0.000000   0.220966  -0.181085
   26  O  2  X   -0.087941  -0.635620   0.000000   0.803122  -0.051798
   27  O  2  Y    0.000000   0.000000  -0.057249   0.000000   0.000000
   28  O  2  Z    0.087373   0.320515   0.000000  -0.030233  -0.089381
   29  O  2 XX   -0.032048  -0.048458   0.000000   0.015735   0.016073
   30  O  2 YY    0.007580   0.025903   0.000000  -0.023984  -0.052241
   31  O  2 ZZ    0.024468   0.022555   0.000000   0.008249   0.036168
   32  O  2 XY    0.000000   0.000000   0.021297   0.000000   0.000000
   33  O  2 XZ   -0.020813   0.049044   0.000000  -0.032589   0.025922
   34  O  2 YZ    0.000000   0.000000   0.054837   0.000000   0.000000
   35  O  3  S    0.000840   0.026121   0.000000   0.018711   0.011460
   36  O  3  S    0.043541   0.006701   0.000000   0.049452  -0.071481
   37  O  3  S   -0.313005  -1.051140   0.000000  -0.737111  -0.001487
   38  O  3  X   -0.111531  -0.275365   0.000000  -0.267422   0.150419
   39  O  3  Y    0.000000   0.000000  -0.210039   0.000000   0.000000
   40  O  3  Z    0.006626  -0.103543   0.000000  -0.220966  -0.181085
   41  O  3  X    0.087941   0.635620   0.000000   0.803122   0.051798
   42  O  3  Y    0.000000   0.000000  -0.057249   0.000000   0.000000
   43  O  3  Z    0.087373   0.320515   0.000000   0.030233  -0.089381
   44  O  3 XX   -0.032048  -0.048458   0.000000  -0.015735   0.016073
   45  O  3 YY    0.007580   0.025903   0.000000   0.023984  -0.052241
   46  O  3 ZZ    0.024468   0.022555   0.000000  -0.008249   0.036168
   47  O  3 XY    0.000000   0.000000  -0.021297   0.000000   0.000000
   48  O  3 XZ    0.020813  -0.049044   0.000000  -0.032589  -0.025922
   49  O  3 YZ    0.000000   0.000000   0.054837   0.000000   0.000000

                     26         27         28         29         30
                    0.6245     0.6627     0.6837     0.7740     0.8147
                     A1         B1         A2         A2         B1  
    1  S  1  S    0.091663   0.000000   0.000000   0.000000   0.000000
    2  S  1  S    0.452438   0.000000   0.000000   0.000000   0.000000
    3  S  1  S    1.578711   0.000000   0.000000   0.000000   0.000000
    4  S  1  S    0.344712   0.000000   0.000000   0.000000   0.000000
    5  S  1  X    0.000000  -0.235148   0.000000   0.000000  -0.154219
    6  S  1  Y    0.000000   0.000000   0.000000   0.000000   0.000000
    7  S  1  Z   -0.074710   0.000000   0.000000   0.000000   0.000000
    8  S  1  X    0.000000   1.211585   0.000000   0.000000   0.725544
    9  S  1  Y    0.000000   0.000000   0.000000   0.000000   0.000000
   10  S  1  Z    0.447552   0.000000   0.000000   0.000000   0.000000
   11  S  1  X    0.000000  -0.329813   0.000000   0.000000  -0.680794
   12  S  1  Y    0.000000   0.000000   0.000000   0.000000   0.000000
   13  S  1  Z    0.074474   0.000000   0.000000   0.000000   0.000000
   14  S  1 XX    0.142250   0.000000   0.000000   0.000000   0.000000
   15  S  1 YY   -0.045296   0.000000   0.000000   0.000000   0.000000
   16  S  1 ZZ   -0.096955   0.000000   0.000000   0.000000   0.000000
   17  S  1 XY    0.000000   0.000000   0.806354   0.711424   0.000000
   18  S  1 XZ    0.000000  -0.340143   0.000000   0.000000  -0.008437
   19  S  1 YZ    0.000000   0.000000   0.000000   0.000000   0.000000
   20  O  2  S    0.053416  -0.044695   0.000000   0.000000  -0.008971
   21  O  2  S   -0.059278   0.081928   0.000000   0.000000  -0.032890
   22  O  2  S   -0.666981   0.336963   0.000000   0.000000   0.077235
   23  O  2  X    0.222872  -0.070652   0.000000   0.000000  -0.123042
   24  O  2  Y    0.000000   0.000000  -0.285887   0.611771   0.000000
   25  O  2  Z    0.055869   0.196520   0.000000   0.000000  -0.589473
   26  O  2  X   -1.129857   0.757516   0.000000   0.000000   0.669471
   27  O  2  Y    0.000000   0.000000   0.826426  -0.310042   0.000000
   28  O  2  Z    0.239374  -0.709239   0.000000   0.000000   0.590071
   29  O  2 XX    0.016823  -0.001269   0.000000   0.000000  -0.036752
   30  O  2 YY   -0.000027   0.021032   0.000000   0.000000   0.029820
   31  O  2 ZZ   -0.016796  -0.019763   0.000000   0.000000   0.006932
   32  O  2 XY    0.000000   0.000000  -0.040241  -0.034347   0.000000
   33  O  2 XZ    0.000321   0.042687   0.000000   0.000000   0.004898
   34  O  2 YZ    0.000000   0.000000   0.028300   0.042302   0.000000
   35  O  3  S    0.053416   0.044695   0.000000   0.000000   0.008971
   36  O  3  S   -0.059278  -0.081928   0.000000   0.000000   0.032890
   37  O  3  S   -0.666981  -0.336963   0.000000   0.000000  -0.077235
   38  O  3  X   -0.222872  -0.070652   0.000000   0.000000  -0.123042
   39  O  3  Y    0.000000   0.000000   0.285887  -0.611771   0.000000
   40  O  3  Z    0.055869  -0.196520   0.000000   0.000000   0.589473
   41  O  3  X    1.129857   0.757516   0.000000   0.000000   0.669471
   42  O  3  Y    0.000000   0.000000  -0.826426   0.310042   0.000000
   43  O  3  Z    0.239374   0.709239   0.000000   0.000000  -0.590071
   44  O  3 XX    0.016823   0.001269   0.000000   0.000000   0.036752
   45  O  3 YY   -0.000027  -0.021032   0.000000   0.000000  -0.029820
   46  O  3 ZZ   -0.016796   0.019763   0.000000   0.000000  -0.006932
   47  O  3 XY    0.000000   0.000000  -0.040241  -0.034347   0.000000
   48  O  3 XZ   -0.000321   0.042687   0.000000   0.000000   0.004898
   49  O  3 YZ    0.000000   0.000000  -0.028300  -0.042302   0.000000

                     31         32         33         34         35
                    0.8261     0.8726     1.4492     1.5587     1.7183
                     A1         B2         B1         A1         B1  
    1  S  1  S    0.027374   0.000000   0.000000   0.032442   0.000000
    2  S  1  S    0.136122   0.000000   0.000000  -0.090164   0.000000
    3  S  1  S    0.475595   0.000000   0.000000   0.273038   0.000000
    4  S  1  S   -0.195986   0.000000   0.000000   1.970872   0.000000
    5  S  1  X    0.000000   0.000000  -0.280550   0.000000   0.016790
    6  S  1  Y    0.000000  -0.037783   0.000000   0.000000   0.000000
    7  S  1  Z   -0.058039   0.000000   0.000000  -0.119193   0.000000
    8  S  1  X    0.000000   0.000000   1.143545   0.000000   0.256998
    9  S  1  Y    0.000000   0.071638   0.000000   0.000000   0.000000
   10  S  1  Z    0.187297   0.000000   0.000000   0.585928   0.000000
   11  S  1  X    0.000000   0.000000   0.568100   0.000000   1.575175
   12  S  1  Y    0.000000  -1.058346   0.000000   0.000000   0.000000
   13  S  1  Z   -1.015794   0.000000   0.000000   0.446664   0.000000
   14  S  1 XX    0.199816   0.000000   0.000000   1.160453   0.000000
   15  S  1 YY    0.083975   0.000000   0.000000  -0.705532   0.000000
   16  S  1 ZZ   -0.283791   0.000000   0.000000  -0.454922   0.000000
   17  S  1 XY    0.000000   0.000000   0.000000   0.000000   0.000000
   18  S  1 XZ    0.000000   0.000000   0.784065   0.000000   0.056320
   19  S  1 YZ    0.000000  -0.219500   0.000000   0.000000   0.000000
   20  O  2  S   -0.001755   0.000000  -0.031911   0.022740  -0.001214
   21  O  2  S    0.053260   0.000000   0.147945   0.190515  -1.301701
   22  O  2  S   -0.043688   0.000000   0.889450  -1.654023   2.389187
   23  O  2  X   -0.262256   0.000000   0.690825  -0.537481   0.047489
   24  O  2  Y    0.000000  -0.606226   0.000000   0.000000   0.000000
   25  O  2  Z   -0.515706   0.000000  -0.036860   0.398873   0.042656
   26  O  2  X    0.148326   0.000000  -0.045466  -0.351651   0.273962
   27  O  2  Y    0.000000   1.121178   0.000000   0.000000   0.000000
   28  O  2  Z    1.059631   0.000000  -0.097010  -0.064834  -0.360745
   29  O  2 XX    0.004777   0.000000  -0.175929   0.063957  -0.028714
   30  O  2 YY   -0.005070   0.000000  -0.006534  -0.144520   0.102020
   31  O  2 ZZ    0.000293   0.000000   0.182463   0.080562  -0.073307
   32  O  2 XY    0.000000  -0.043905   0.000000   0.000000   0.000000
   33  O  2 XZ   -0.026804   0.000000   0.007848  -0.132152   0.174894
   34  O  2 YZ    0.000000   0.007195   0.000000   0.000000   0.000000
   35  O  3  S   -0.001755   0.000000   0.031911   0.022740   0.001214
   36  O  3  S    0.053260   0.000000  -0.147945   0.190515   1.301701
   37  O  3  S   -0.043688   0.000000  -0.889450  -1.654023  -2.389187
   38  O  3  X    0.262256   0.000000   0.690825   0.537481   0.047489
   39  O  3  Y    0.000000  -0.606226   0.000000   0.000000   0.000000
   40  O  3  Z   -0.515706   0.000000   0.036860   0.398873  -0.042656
   41  O  3  X   -0.148326   0.000000  -0.045466   0.351651   0.273962
   42  O  3  Y    0.000000   1.121178   0.000000   0.000000   0.000000
   43  O  3  Z    1.059631   0.000000   0.097010  -0.064834   0.360745
   44  O  3 XX    0.004777   0.000000   0.175929   0.063957   0.028714
   45  O  3 YY   -0.005070   0.000000   0.006534  -0.144520  -0.102020
   46  O  3 ZZ    0.000293   0.000000  -0.182463   0.080562   0.073307
   47  O  3 XY    0.000000   0.043905   0.000000   0.000000   0.000000
   48  O  3 XZ    0.026804   0.000000   0.007848   0.132152   0.174894
   49  O  3 YZ    0.000000   0.007195   0.000000   0.000000   0.000000

                     36         37         38         39         40
                    1.7239     1.9956     2.0032     2.0714     2.1241
                     A1         A2         B1         B2         A1  
    1  S  1  S    0.010517   0.000000   0.000000   0.000000   0.002637
    2  S  1  S   -0.080699   0.000000   0.000000   0.000000  -0.062147
    3  S  1  S    0.023296   0.000000   0.000000   0.000000  -0.049327
    4  S  1  S   -1.955460   0.000000   0.000000   0.000000   0.018429
    5  S  1  X    0.000000   0.000000  -0.018268   0.000000   0.000000
    6  S  1  Y    0.000000   0.000000   0.000000  -0.038145   0.000000
    7  S  1  Z   -0.036746   0.000000   0.000000   0.000000  -0.014285
    8  S  1  X    0.000000   0.000000   0.027203   0.000000   0.000000
    9  S  1  Y    0.000000   0.000000   0.000000   0.196876   0.000000
   10  S  1  Z    0.038698   0.000000   0.000000   0.000000   0.028457
   11  S  1  X    0.000000   0.000000   0.058601   0.000000   0.000000
   12  S  1  Y    0.000000   0.000000   0.000000  -0.001934   0.000000
   13  S  1  Z   -0.667537   0.000000   0.000000   0.000000   0.010459
   14  S  1 XX    0.236076   0.000000   0.000000   0.000000   0.236637
   15  S  1 YY   -0.090192   0.000000   0.000000   0.000000  -0.360211
   16  S  1 ZZ   -0.145884   0.000000   0.000000   0.000000   0.123574
   17  S  1 XY    0.000000   0.049568   0.000000   0.000000   0.000000
   18  S  1 XZ    0.000000   0.000000  -0.022903   0.000000   0.000000
   19  S  1 YZ    0.000000   0.000000   0.000000  -0.160571   0.000000
   20  O  2  S    0.000882   0.000000  -0.001884   0.000000   0.001501
   21  O  2  S   -1.260071   0.000000   0.028206   0.000000  -0.199838
   22  O  2  S    2.012770   0.000000  -0.001161   0.000000   0.094304
   23  O  2  X   -0.134562   0.000000   0.048474   0.000000  -0.116658
   24  O  2  Y    0.000000  -0.018889   0.000000   0.039633   0.000000
   25  O  2  Z    0.053771   0.000000   0.026602   0.000000   0.050297
   26  O  2  X    0.648054   0.000000  -0.073378   0.000000   0.083988
   27  O  2  Y    0.000000   0.038969   0.000000  -0.065276   0.000000
   28  O  2  Z    0.008999   0.000000  -0.048597   0.000000  -0.032411
   29  O  2 XX   -0.207421   0.000000  -0.215006   0.000000  -0.029780
   30  O  2 YY   -0.008425   0.000000   0.610261   0.000000   0.587312
   31  O  2 ZZ    0.215846   0.000000  -0.395256   0.000000  -0.557532
   32  O  2 XY    0.000000   0.387852   0.000000  -0.032576   0.000000
   33  O  2 XZ   -0.067163   0.000000  -0.344153   0.000000  -0.246257
   34  O  2 YZ    0.000000   0.592914   0.000000   0.714781   0.000000
   35  O  3  S    0.000882   0.000000   0.001884   0.000000   0.001501
   36  O  3  S   -1.260071   0.000000  -0.028206   0.000000  -0.199838
   37  O  3  S    2.012770   0.000000   0.001161   0.000000   0.094304
   38  O  3  X    0.134562   0.000000   0.048474   0.000000   0.116658
   39  O  3  Y    0.000000   0.018889   0.000000   0.039633   0.000000
   40  O  3  Z    0.053771   0.000000  -0.026602   0.000000   0.050297
   41  O  3  X   -0.648054   0.000000  -0.073378   0.000000  -0.083988
   42  O  3  Y    0.000000  -0.038969   0.000000  -0.065276   0.000000
   43  O  3  Z    0.008999   0.000000   0.048597   0.000000  -0.032411
   44  O  3 XX   -0.207421   0.000000   0.215006   0.000000  -0.029780
   45  O  3 YY   -0.008425   0.000000  -0.610261   0.000000   0.587312
   46  O  3 ZZ    0.215846   0.000000   0.395256   0.000000  -0.557532
   47  O  3 XY    0.000000   0.387852   0.000000   0.032576   0.000000
   48  O  3 XZ    0.067163   0.000000  -0.344153   0.000000   0.246257
   49  O  3 YZ    0.000000  -0.592914   0.000000   0.714781   0.000000

                     41         42         43         44         45
                    2.3632     2.5367     2.6642     2.7283     2.8922
                     B2         B1         A2         A1         A1  
    1  S  1  S    0.000000   0.000000   0.000000  -0.026035  -0.081180
    2  S  1  S    0.000000   0.000000   0.000000  -0.310890  -0.506525
    3  S  1  S    0.000000   0.000000   0.000000  -0.746557  -1.708856
    4  S  1  S    0.000000   0.000000   0.000000  -0.922043  -1.489178
    5  S  1  X    0.000000  -0.014194   0.000000   0.000000   0.000000
    6  S  1  Y    0.099392   0.000000   0.000000   0.000000   0.000000
    7  S  1  Z    0.000000   0.000000   0.000000   0.096812   0.026663
    8  S  1  X    0.000000  -0.253207   0.000000   0.000000   0.000000
    9  S  1  Y   -0.516588   0.000000   0.000000   0.000000   0.000000
   10  S  1  Z    0.000000   0.000000   0.000000  -0.754724  -0.531277
   11  S  1  X    0.000000  -0.207623   0.000000   0.000000   0.000000
   12  S  1  Y   -0.166861   0.000000   0.000000   0.000000   0.000000
   13  S  1  Z    0.000000   0.000000   0.000000  -0.390283  -0.041258
   14  S  1 XX    0.000000   0.000000   0.000000   0.395562  -1.296313
   15  S  1 YY    0.000000   0.000000   0.000000   0.072560   0.613806
   16  S  1 ZZ    0.000000   0.000000   0.000000  -0.468122   0.682508
   17  S  1 XY    0.000000   0.000000   0.936751   0.000000   0.000000
   18  S  1 XZ    0.000000   0.832769   0.000000   0.000000   0.000000
   19  S  1 YZ   -0.368105   0.000000   0.000000   0.000000   0.000000
   20  O  2  S    0.000000   0.009454   0.000000  -0.026038  -0.035482
   21  O  2  S    0.000000   0.489655   0.000000  -0.648749  -0.200387
   22  O  2  S    0.000000  -0.550048   0.000000   1.254839   1.819178
   23  O  2  X    0.000000   0.175436   0.000000  -0.051453   0.418983
   24  O  2  Y   -0.056137   0.000000   0.078054   0.000000   0.000000
   25  O  2  Z    0.000000  -0.032442   0.000000   0.031537  -0.218993
   26  O  2  X    0.000000  -0.142253   0.000000   0.698436   0.806713
   27  O  2  Y    0.304749   0.000000   0.323258   0.000000   0.000000
   28  O  2  Z    0.000000   0.376904   0.000000   0.146675  -0.495447
   29  O  2 XX    0.000000   0.291676   0.000000   0.732210   0.464781
   30  O  2 YY    0.000000   0.216681   0.000000  -0.267016  -0.436152
   31  O  2 ZZ    0.000000  -0.508357   0.000000  -0.465194  -0.028629
   32  O  2 XY    0.783347   0.000000   0.745404   0.000000   0.000000
   33  O  2 XZ    0.000000   0.603126   0.000000   0.336823  -0.793948
   34  O  2 YZ    0.014158   0.000000  -0.447608   0.000000   0.000000
   35  O  3  S    0.000000  -0.009454   0.000000  -0.026038  -0.035482
   36  O  3  S    0.000000  -0.489655   0.000000  -0.648749  -0.200387
   37  O  3  S    0.000000   0.550048   0.000000   1.254839   1.819178
   38  O  3  X    0.000000   0.175436   0.000000   0.051453  -0.418983
   39  O  3  Y   -0.056137   0.000000  -0.078054   0.000000   0.000000
   40  O  3  Z    0.000000   0.032442   0.000000   0.031537  -0.218993
   41  O  3  X    0.000000  -0.142253   0.000000  -0.698436  -0.806713
   42  O  3  Y    0.304749   0.000000  -0.323258   0.000000   0.000000
   43  O  3  Z    0.000000  -0.376904   0.000000   0.146675  -0.495447
   44  O  3 XX    0.000000  -0.291676   0.000000   0.732210   0.464781
   45  O  3 YY    0.000000  -0.216681   0.000000  -0.267016  -0.436152
   46  O  3 ZZ    0.000000   0.508357   0.000000  -0.465194  -0.028629
   47  O  3 XY   -0.783347   0.000000   0.745404   0.000000   0.000000
   48  O  3 XZ    0.000000   0.603126   0.000000  -0.336823   0.793948
   49  O  3 YZ    0.014158   0.000000   0.447608   0.000000   0.000000

                     46
                    2.9741
                     B1  
    1  S  1  S    0.000000
    2  S  1  S    0.000000
    3  S  1  S    0.000000
    4  S  1  S    0.000000
    5  S  1  X   -0.199349
    6  S  1  Y    0.000000
    7  S  1  Z    0.000000
    8  S  1  X    2.240762
    9  S  1  Y    0.000000
   10  S  1  Z    0.000000
   11  S  1  X    0.389876
   12  S  1  Y    0.000000
   13  S  1  Z    0.000000
   14  S  1 XX    0.000000
   15  S  1 YY    0.000000
   16  S  1 ZZ    0.000000
   17  S  1 XY    0.000000
   18  S  1 XZ    0.786451
   19  S  1 YZ    0.000000
   20  O  2  S   -0.043355
   21  O  2  S   -0.325699
   22  O  2  S    1.883877
   23  O  2  X    0.415706
   24  O  2  Y    0.000000
   25  O  2  Z   -0.098010
   26  O  2  X    0.965144
   27  O  2  Y    0.000000
   28  O  2  Z   -0.283718
   29  O  2 XX    0.858127
   30  O  2 YY   -0.410084
   31  O  2 ZZ   -0.448044
   32  O  2 XY    0.000000
   33  O  2 XZ   -0.415163
   34  O  2 YZ    0.000000
   35  O  3  S    0.043355
   36  O  3  S    0.325699
   37  O  3  S   -1.883877
   38  O  3  X    0.415706
   39  O  3  Y    0.000000
   40  O  3  Z    0.098010
   41  O  3  X    0.965144
   42  O  3  Y    0.000000
   43  O  3  Z    0.283718
   44  O  3 XX   -0.858127
   45  O  3 YY    0.410084
   46  O  3 ZZ    0.448044
   47  O  3 XY    0.000000
   48  O  3 XZ   -0.415163
   49  O  3 YZ    0.000000
 ...... END OF RHF CALCULATION ......
 STEP CPU TIME =     4.47 TOTAL CPU TIME =        4.7 (    0.1 MIN)
 TOTAL WALL CLOCK TIME=        4.7 SECONDS, CPU UTILIZATION IS  99.79%

     ---------------------------------------------------------------------
     PROPERTIES FOR THE PBE      DFT FUNCTIONAL (RHF  TYPE) DENSITY MATRIX
     ---------------------------------------------------------------------

          -----------------
          ENERGY COMPONENTS
          -----------------

         WAVEFUNCTION NORMALIZATION =       1.0000000000

                ONE ELECTRON ENERGY =   -1008.6547395460
                TWO ELECTRON ENERGY =     332.8247703216
           NUCLEAR REPULSION ENERGY =     127.9081776070
                                      ------------------
                       TOTAL ENERGY =    -547.9217916175

 ELECTRON-ELECTRON POTENTIAL ENERGY =     332.8247703216
  NUCLEUS-ELECTRON POTENTIAL ENERGY =   -1559.2218462069
   NUCLEUS-NUCLEUS POTENTIAL ENERGY =     127.9081776070
                                      ------------------
             TOTAL POTENTIAL ENERGY =   -1098.4888982784
               TOTAL KINETIC ENERGY =     550.5671066609
                 VIRIAL RATIO (V/T) =       1.9951952904

          ---------------------------------------
          MULLIKEN AND LOWDIN POPULATION ANALYSES
          ---------------------------------------

     ATOMIC MULLIKEN POPULATION IN EACH MOLECULAR ORBITAL

                      1          2          3          4          5

                  2.000000   2.000000   2.000000   2.000000   2.000000

    1             2.000098   0.001019   0.001398   2.004318   1.997757
    2            -0.000049   0.999490   0.999301  -0.002159   0.001121
    3            -0.000049   0.999490   0.999301  -0.002159   0.001121

                      6          7          8          9         10

                  2.000000   2.000000   2.000000   2.000000   2.000000

    1             1.999882   1.999568   0.729229   0.583930   0.866888
    2             0.000059   0.000216   0.635386   0.708035   0.566556
    3             0.000059   0.000216   0.635386   0.708035   0.566556

                     11         12         13         14         15

                  2.000000   2.000000   2.000000   2.000000   2.000000

    1             0.746195   0.438687   0.224095   0.232345   0.221632
    2             0.626902   0.780657   0.887952   0.883828   0.889184
    3             0.626902   0.780657   0.887952   0.883828   0.889184

                     16

                  2.000000

    1             1.522855
    2             0.238572
    3             0.238572

               ----- POPULATIONS IN EACH AO -----
                             MULLIKEN      LOWDIN
              1  S  1  S      2.00027     1.99574
              2  S  1  S      2.01145     1.92311
              3  S  1  S      0.83573     0.49277
              4  S  1  S      1.13166     0.63195
              5  S  1  X      1.99703     1.95913
              6  S  1  Y      1.99584     1.95462
              7  S  1  Z      1.99696     1.96357
              8  S  1  X      0.73043     0.62019
              9  S  1  Y      0.64204     0.57516
             10  S  1  Z      0.82443     0.78508
             11  S  1  X      0.05983     0.24539
             12  S  1  Y      0.20842     0.29008
             13  S  1  Z      0.24439     0.36376
             14  S  1 XX      0.13669     0.41693
             15  S  1 YY      0.26078     0.27706
             16  S  1 ZZ      0.23234     0.32543
             17  S  1 XY      0.24114     0.29448
             18  S  1 XZ      0.02047     0.29989
             19  S  1 YZ      0.00000     0.02056
             20  O  2  S      1.99813     1.97908
             21  O  2  S      0.81021     0.61823
             22  O  2  S      0.88195     0.49318
             23  O  2  X      1.05687     1.01692
             24  O  2  Y      0.91974     0.86226
             25  O  2  Z      1.08886     1.04773
             26  O  2  X      0.37454     0.51089
             27  O  2  Y      0.51701     0.55239
             28  O  2  Z      0.52917     0.58471
             29  O  2 XX      0.00533     0.21462
             30  O  2 YY      0.00917     0.18207
             31  O  2 ZZ      0.01245     0.18158
             32  O  2 XY      0.01037     0.01627
             33  O  2 XZ      0.00124     0.02099
             34  O  2 YZ      0.00000     0.00164
             35  O  3  S      1.99813     1.97908
             36  O  3  S      0.81021     0.61823
             37  O  3  S      0.88195     0.49318
             38  O  3  X      1.05687     1.01692
             39  O  3  Y      0.91974     0.86226
             40  O  3  Z      1.08886     1.04773
             41  O  3  X      0.37454     0.51089
             42  O  3  Y      0.51701     0.55239
             43  O  3  Z      0.52917     0.58471
             44  O  3 XX      0.00533     0.21462
             45  O  3 YY      0.00917     0.18207
             46  O  3 ZZ      0.01245     0.18158
             47  O  3 XY      0.01037     0.01627
             48  O  3 XZ      0.00124     0.02099
             49  O  3 YZ      0.00000     0.00164

          ----- MULLIKEN ATOMIC OVERLAP POPULATIONS -----
          (OFF-DIAGONAL ELEMENTS NEED TO BE MULTIPLIED BY 2)

             1           2           3

    1   15.0648773
    2    0.2525094   7.9394304
    3    0.2525094   0.0231122   7.9394304

          TOTAL MULLIKEN AND LOWDIN ATOMIC POPULATIONS
       ATOM         MULL.POP.    CHARGE          LOW.POP.     CHARGE
    1 S            15.569896    0.430104        15.434895    0.565105
    2 O             8.215052   -0.215052         8.282552   -0.282552
    3 O             8.215052   -0.215052         8.282552   -0.282552

          MULLIKEN SPHERICAL HARMONIC POPULATIONS
       ATOM           S       P       D      F      G      H      I    TOTAL
    1 S             5.98    8.70    0.89   0.00   0.00   0.00   0.00   15.57
    2 O             3.69    4.49    0.04   0.00   0.00   0.00   0.00    8.22
    3 O             3.69    4.49    0.04   0.00   0.00   0.00   0.00    8.22

          -------------------------------
          BOND ORDER AND VALENCE ANALYSIS     BOND ORDER THRESHOLD=0.050
          -------------------------------

                   BOND                       BOND                       BOND
  ATOM PAIR DIST  ORDER      ATOM PAIR DIST  ORDER      ATOM PAIR DIST  ORDER
    1   2  1.200  2.073        1   3  1.200  2.073        2   3  2.255  0.103

                       TOTAL       BONDED        FREE
      ATOM            VALENCE     VALENCE     VALENCE
    1 S                 4.146       4.146       0.000
    2 O                 2.176       2.176       0.000
    3 O                 2.176       2.176       0.000

          ---------------------
          ELECTROSTATIC MOMENTS
          ---------------------

 POINT   1           X           Y           Z (BOHR)    CHARGE
                 0.000000    0.000000    0.000000        0.00 (A.U.)
         DX          DY          DZ         /D/  (DEBYE)
     0.000000    0.000000    0.121806    0.121806
 ...... END OF PROPERTY EVALUATION ......
 STEP CPU TIME =     0.01 TOTAL CPU TIME =        4.7 (    0.1 MIN)
 TOTAL WALL CLOCK TIME=        4.7 SECONDS, CPU UTILIZATION IS  99.79%
               580000  WORDS OF DYNAMIC MEMORY USED
 EXECUTION OF GAMESS TERMINATED NORMALLY Thu Feb 26 00:13:17 2015
 DDI: 263624 bytes (0.3 MB / 0 MWords) used by master data server.

 ----------------------------------------
 CPU timing information for all processes
 ========================================
 0: 4.654 + 0.18 = 4.673
 ----------------------------------------
 ddikick.x: exited gracefully.
----- accounting info -----
Files used on the master node dftfe.crc.nd.edu were:
-rw-r--r-- 1 pmehta1 campus   37475 Feb 26 00:13 /tmp/gamess.dat
-rw-r--r-- 1 pmehta1 campus     142 Feb 26 00:13 /tmp/gamess.F05
-rw-r--r-- 1 pmehta1 campus 2340312 Feb 26 00:13 /tmp/gamess.F08
-rw-r--r-- 1 pmehta1 campus 1220440 Feb 26 00:13 /tmp/gamess.F10
Thu Feb 26 00:13:20 EST 2015
0.229u 0.189s 0:08.09 4.9%	0+0k 0+104io 0pf+0w
