----- GAMESS execution script 'rungms' -----
This job is running on host dftfe.crc.nd.edu
under operating system Linux at Thu Feb 26 00:11:16 EST 2015
Available scratch disk space (Kbyte units) at beginning of the job is
Filesystem     1K-blocks     Used Available Use% Mounted on
/dev/sda2      147771864 22809060 117456372  17% /
GAMESS temporary binary files will be written to /tmp
GAMESS supplementary output files will be written to /tmp
Copying input file gamess.inp to your run's scratch directory...

 Distributed Data Interface kickoff program.
 Initiating 1 compute processes on 1 nodes to run the following command:
 /opt/crc/gamess/2012R1/gamess/gamess.00.x gamess 

          ******************************************************
          *         GAMESS VERSION =  1 MAY 2012 (R1)          *
          *             FROM IOWA STATE UNIVERSITY             *
          * M.W.SCHMIDT, K.K.BALDRIDGE, J.A.BOATZ, S.T.ELBERT, *
          *   M.S.GORDON, J.H.JENSEN, S.KOSEKI, N.MATSUNAGA,   *
          *          K.A.NGUYEN, S.J.SU, T.L.WINDUS,           *
          *       TOGETHER WITH M.DUPUIS, J.A.MONTGOMERY       *
          *         J.COMPUT.CHEM.  14, 1347-1363(1993)        *
          **************** 64 BIT LINUX VERSION ****************

  SINCE 1993, STUDENTS AND POSTDOCS WORKING AT IOWA STATE UNIVERSITY
  AND ALSO IN THEIR VARIOUS JOBS AFTER LEAVING ISU HAVE MADE IMPORTANT
  CONTRIBUTIONS TO THE CODE:
     IVANA ADAMOVIC, CHRISTINE AIKENS, YURI ALEXEEV, POOJA ARORA,
     ANDREY ASADCHEV, ROB BELL, PRADIPTA BANDYOPADHYAY, JONATHAN BENTZ,
     BRETT BODE, GALINA CHABAN, WEI CHEN, CHEOL HO CHOI, PAUL DAY,
     ALBERT DEFUSCO, TIM DUDLEY, DMITRI FEDOROV, GRAHAM FLETCHER,
     MARK FREITAG, KURT GLAESEMANN, DAN KEMP, GRANT MERRILL,
     NORIYUKI MINEZAWA, JONATHAN MULLIN, TAKESHI NAGATA,
     SEAN NEDD, HEATHER NETZLOFF, BOSILJKA NJEGIC, RYAN OLSON, MIKE PAK,
     JIM SHOEMAKER, LYUDMILA SLIPCHENKO, SAROM SOK, JIE SONG,
     TETSUYA TAKETSUGU, SIMON WEBB, SOOHAENG YOO, FEDERICO ZAHARIEV

  ADDITIONAL CODE HAS BEEN PROVIDED BY COLLABORATORS IN OTHER GROUPS:
     IOWA STATE UNIVERSITY:
          JOE IVANIC, LAIMUTIS BYTAUTAS, KLAUS RUEDENBERG
     UNIVERSITY OF TOKYO: KIMIHIKO HIRAO, TAKAHITO NAKAJIMA,
          TAKAO TSUNEDA, MUNEAKI KAMIYA, SUSUMU YANAGISAWA,
          KIYOSHI YAGI, MAHITO CHIBA, SEIKEN TOKURA, NAOAKI KAWAKAMI
     UNIVERSITY OF AARHUS: FRANK JENSEN
     UNIVERSITY OF IOWA: VISVALDAS KAIRYS, HUI LI
     NATIONAL INST. OF STANDARDS AND TECHNOLOGY: WALT STEVENS, DAVID GARMER
     UNIVERSITY OF PISA: BENEDETTA MENNUCCI, JACOPO TOMASI
     UNIVERSITY OF MEMPHIS: HENRY KURTZ, PRAKASHAN KORAMBATH
     UNIVERSITY OF ALBERTA: TOBY ZENG, MARIUSZ KLOBUKOWSKI
     UNIVERSITY OF NEW ENGLAND: MARK SPACKMAN
     MIE UNIVERSITY: HIROAKI UMEDA
     MICHIGAN STATE UNIVERSITY:
          KAROL KOWALSKI, MARTA WLOCH, JEFFREY GOUR, JESSE LUTZ, PIOTR PIECUCH
     UNIVERSITY OF SILESIA: MONIKA MUSIAL, STANISLAW KUCHARSKI
     FACULTES UNIVERSITAIRES NOTRE-DAME DE LA PAIX:
          OLIVIER QUINET, BENOIT CHAMPAGNE
     UNIVERSITY OF CALIFORNIA - SANTA BARBARA: BERNARD KIRTMAN
     INSTITUTE FOR MOLECULAR SCIENCE:
          KAZUYA ISHIMURA, MICHIO KATOUDA, AND SHIGERU NAGASE
     UNIVERSITY OF NOTRE DAME: DAN CHIPMAN
     KYUSHU UNIVERSITY:
          HARUYUKI NAKANO,
          FENG LONG GU, JACEK KORCHOWIEC, MARCIN MAKOWSKI, AND YURIKO AOKI,
          HIROTOSHI MORI AND EISAKU MIYOSHI
     PENNSYLVANIA STATE UNIVERSITY:
          TZVETELIN IORDANOV, CHET SWALINA, JONATHAN SKONE,
          SHARON HAMMES-SCHIFFER
     WASEDA UNIVERSITY:
          MASATO KOBAYASHI, TOMOKO AKAMA, TSUGUKI TOUMA,
          TAKESHI YOSHIKAWA, YASUHIRO IKABATA, HIROMI NAKAI
     UNIVERSITY OF NEBRASKA:
          PEIFENG SU, DEJUN SI, NANDUN THELLAMUREGE, YALI WANG, HUI LI
     UNIVERSITY OF ZURICH:
          ROBERTO PEVERATI, KIM BALDRIDGE
     N. COPERNICUS UNIVERSITY AND JACKSON STATE UNIVERSITY:
          MARIA BARYSZ

 EXECUTION OF GAMESS BEGUN Thu Feb 26 00:11:16 2015

            ECHO OF THE FIRST FEW INPUT CARDS -
 INPUT CARD> $BASIS GBASIS=PC1 $END                                                         
 INPUT CARD> $CONTRL COORD=ZMT ISPHER=1 RUNTYP=ENERGY DFTTYP=PBE $END                       
 INPUT CARD>                                                                                
 INPUT CARD> $DATA                                                                          
 INPUT CARD>Title                                                                           
 INPUT CARD>Cnv 2                                                                           
 INPUT CARD>                                                                                
 INPUT CARD>S                                                                               
 INPUT CARD>O 1 1.10                                                                        
 INPUT CARD>O 1 1.10 2 100.0                                                                
 INPUT CARD> $END                                                                           
    1000000 WORDS OF MEMORY AVAILABLE

     BASIS OPTIONS
     -------------
     GBASIS=PC1          IGAUSS=       0      POLAR=NONE    
     NDFUNC=       0     NFFUNC=       0     DIFFSP=       F
     NPFUNC=       0      DIFFS=       F     BASNAM=        


     RUN TITLE
     ---------
 Title                                                                           

 THE POINT GROUP OF THE MOLECULE IS CNV     
 THE ORDER OF THE PRINCIPAL AXIS IS     2

 YOUR FULLY SUBSTITUTED Z-MATRIX IS
 S   
 O      1   1.1000000
 O      1   1.1000000  2  100.0000

 THE MOMENTS OF INERTIA ARE (AMU-ANGSTROM**2)
 IXX=     7.994   IYY=    22.715   IZZ=    30.709

 ATOM      ATOMIC                      COORDINATES (BOHR)
           CHARGE         X                   Y                   Z
 S          16.0     0.0000000000        0.0000000000       -0.6682662463
 O           8.0    -1.5923755011        0.0000000000        0.6678954494
 O           8.0     1.5923755011        0.0000000000        0.6678954494

          INTERNUCLEAR DISTANCES (ANGS.)
          ------------------------------

                1 S          2 O          3 O     

   1 S       0.0000000    1.1000000 *  1.1000000 *
   2 O       1.1000000 *  0.0000000    1.6852978 *
   3 O       1.1000000 *  1.6852978 *  0.0000000  

  * ... LESS THAN  3.000


     ATOMIC BASIS SET
     ----------------
 THE CONTRACTED PRIMITIVE FUNCTIONS HAVE BEEN UNNORMALIZED
 THE CONTRACTED BASIS FUNCTIONS ARE NOW NORMALIZED TO UNITY

  SHELL TYPE  PRIMITIVE        EXPONENT          CONTRACTION COEFFICIENT(S)

 S         

      1   S       1         55510.0000000    0.000587229760
      1   S       2          8326.7000000    0.004532413947
      1   S       3          1895.6000000    0.023265261648
      1   S       4           536.7700000    0.089696133027
      1   S       5           174.6700000    0.254098332277
      1   S       6            62.5780000    0.438665087637
      1   S       7            23.5730000    0.314547135094
      1   S       8             5.8908000    0.032727897102

      2   S       9          8326.7000000   -0.000019755715
      2   S      10          1895.6000000   -0.000043822381
      2   S      11           536.7700000   -0.001730264906
      2   S      12           174.6700000   -0.009381263460
      2   S      13            62.5780000   -0.064050766303
      2   S      14            23.5730000   -0.082478179196
      2   S      15             5.8908000    0.478342956889
      2   S      16             2.1852000    0.626896670208

      3   S      17          1895.6000000    0.000016227260
      3   S      18           536.7700000    0.000191135619
      3   S      19           174.6700000    0.001952069674
      3   S      20            62.5780000    0.010578701087
      3   S      21            23.5730000    0.022164934551
      3   S      22             5.8908000   -0.184968323118
      3   S      23             2.1852000   -0.480920750976
      3   S      24             0.4528200    1.243822243872

      4   S      25             0.1620200    1.000000000000

      5   P      26           395.4500000    0.004642761329
      5   P      27            92.8340000    0.036023396489
      5   P      28            29.2660000    0.149058869978
      5   P      29            10.5950000    0.360033266263
      5   P      30             4.0272000    0.455756476221
      5   P      31             1.5484000    0.206167664178

      6   P      32            92.8340000    0.000169901442
      6   P      33            29.2660000   -0.002541839934
      6   P      34            10.5950000   -0.007867614595
      6   P      35             4.0272000   -0.037231009184
      6   P      36             1.5484000    0.161417246830
      6   P      37             0.4613400    0.902230419976

      7   P      38             0.1313100    1.000000000000

      8   D      39             0.5500000    1.000000000000

 O         

     15   S      40          2306.7000000    0.005424388755
     15   S      41           347.1500000    0.040474749465
     15   S      42            78.8900000    0.180219634554
     15   S      43            21.8760000    0.462370311787
     15   S      44             6.6646000    0.454888396263

     16   S      45           347.1500000   -0.000655003786
     16   S      46            78.8900000   -0.005362052952
     16   S      47            21.8760000   -0.074902158894
     16   S      48             6.6646000   -0.181442579655
     16   S      49             1.0669000    1.102006874042

     17   S      50             0.3070000    1.000000000000

     18   P      51            17.0220000    0.068979967443
     18   P      52             3.6838000    0.351985516325
     18   P      53             0.9923400    0.724036547822

     19   P      54             0.2448700    1.000000000000

     20   D      55             1.0000000    1.000000000000

 TOTAL NUMBER OF BASIS SET SHELLS             =   20
 NUMBER OF CARTESIAN GAUSSIAN BASIS FUNCTIONS =   49
 NOTE: THIS RUN WILL RESTRICT THE MO VARIATION SPACE TO SPHERICAL HARMONICS.
 THE NUMBER OF ORBITALS KEPT IN THE VARIATIONAL SPACE WILL BE PRINTED LATER.
 NUMBER OF ELECTRONS                          =   32
 CHARGE OF MOLECULE                           =    0
 SPIN MULTIPLICITY                            =    1
 NUMBER OF OCCUPIED ORBITALS (ALPHA)          =   16
 NUMBER OF OCCUPIED ORBITALS (BETA )          =   16
 TOTAL NUMBER OF ATOMS                        =    3
 THE NUCLEAR REPULSION ENERGY IS      143.2497405797

     LEBEDEV GRID-BASED DFT OPTIONS
     ------------------------------
     DFTTYP=PBE     
     NRAD  =      96     NLEB  =     302
     NRAD0 =      24     NLEB0 =     110
     SWOFF =    5.00E-03 (PURE SCF -> DFT)
     SWITCH=    3.00E-04 (COARSE -> TIGHT GRID)
     THRESH=    0.00E+00 GTHRE=    1.00E+00

 GRIMME'S EMPIRICAL DISPERSION CORRECTION= F

     $CONTRL OPTIONS
     ---------------
 SCFTYP=RHF          RUNTYP=ENERGY       EXETYP=RUN     
 MPLEVL=       0     CITYP =NONE         CCTYP =NONE         VBTYP =NONE    
 DFTTYP=PBE          TDDFT =NONE    
 MULT  =       1     ICHARG=       0     NZVAR =       0     COORD =ZMT     
 PP    =NONE         RELWFN=NONE         LOCAL =NONE         NUMGRD=       F
 ISPHER=       1     NOSYM =       0     MAXIT =      30     UNITS =ANGS    
 PLTORB=       F     MOLPLT=       F     AIMPAC=       F     FRIEND=        
 NPRINT=       7     IREST =       0     GEOM  =INPUT   
 NORMF =       0     NORMP =       0     ITOL  =      20     ICUT  =       9
 INTTYP=BEST         GRDTYP=BEST         QMTTOL= 1.0E-06

     $SYSTEM OPTIONS
     ---------------
  REPLICATED MEMORY=     1000000 WORDS (ON EVERY NODE).
 DISTRIBUTED MEMDDI=           0 MILLION WORDS IN AGGREGATE,
 MEMDDI DISTRIBUTED OVER   1 PROCESSORS IS           0 WORDS/PROCESSOR.
 TOTAL MEMORY REQUESTED ON EACH PROCESSOR=     1000000 WORDS.
 TIMLIM=      525600.00 MINUTES, OR     365.0 DAYS.
 PARALL= F  BALTYP=  DLB     KDIAG=    0  COREFL= F
 MXSEQ2=     300 MXSEQ3=     150

          ----------------
          PROPERTIES INPUT
          ----------------

     MOMENTS            FIELD           POTENTIAL          DENSITY
 IEMOM =       1   IEFLD =       0   IEPOT =       0   IEDEN =       0
 WHERE =COMASS     WHERE =NUCLEI     WHERE =NUCLEI     WHERE =NUCLEI  
 OUTPUT=BOTH       OUTPUT=BOTH       OUTPUT=BOTH       OUTPUT=BOTH    
 IEMINT=       0   IEFINT=       0                     IEDINT=       0
                                                       MORB  =       0
          EXTRAPOLATION IN EFFECT
          DIIS IN EFFECT
 ORBITAL PRINTING OPTION: NPREO=     1    49     2     1

     -------------------------------
     INTEGRAL TRANSFORMATION OPTIONS
     -------------------------------
     NWORD  =            0
     CUTOFF = 1.0E-09     MPTRAN =       0
     DIRTRF =       F     AOINTS =DUP     

          ----------------------
          INTEGRAL INPUT OPTIONS
          ----------------------
 NOPK  =       1 NORDER=       0 SCHWRZ=       F

   --- ENCODED Z MATRIX ---
 COORD  TYPE   I   J   K   L   M   N
    1      1    3   1
    2      1    2   1
    3      2    2   1   3

 THE DETERMINANT OF THE G MATRIX IS 10**(    -4)

 THE DETERMINANT OF THE G MATRIX IS 10**(    -4)
 * * * WARNING * * *
 YOUR B MATRIX HAS A SMALL DETERMINANT.
 THIS SUGGESTS YOU MAY HAVE BADLY CHOSEN COORDINATES.

     ------------------------------------------
     THE POINT GROUP IS CNV, NAXIS= 2, ORDER= 4
     ------------------------------------------

 -- VARIATIONAL SPACE WILL BE RESTRICTED TO PURE SPHERICAL HARMONICS ONLY --
 AFTER EXCLUDING CONTAMINANT COMBINATIONS FROM THE CARTESIAN GAUSSIAN BASIS
 SET, THE NUMBER OF SPHERICAL HARMONICS KEPT IN THE VARIATION SPACE IS   46

     DIMENSIONS OF THE SYMMETRY SUBSPACES ARE
 A1  =   19     A2  =    5     B1  =   14     B2  =    8

 ..... DONE SETTING UP THE RUN .....
 STEP CPU TIME =     0.01 TOTAL CPU TIME =        0.0 (    0.0 MIN)
 TOTAL WALL CLOCK TIME=        0.0 SECONDS, CPU UTILIZATION IS 100.00%

          ********************
          1 ELECTRON INTEGRALS
          ********************
 ...... END OF ONE-ELECTRON INTEGRALS ......
 STEP CPU TIME =     0.00 TOTAL CPU TIME =        0.0 (    0.0 MIN)
 TOTAL WALL CLOCK TIME=        0.0 SECONDS, CPU UTILIZATION IS  50.00%

          -------------
          GUESS OPTIONS
          -------------
          GUESS =HUCKEL            NORB  =       0          NORDER=       0
          MIX   =       F          PRTMO =       F          PUNMO =       F
          TOLZ  = 1.0E-08          TOLE  = 1.0E-05
          SYMDEN=       F          PURIFY=       F

 INITIAL GUESS ORBITALS GENERATED BY HUCKEL   ROUTINE.
 HUCKEL GUESS REQUIRES     21583 WORDS.

 STATISTICS FOR GENERATION OF SYMMETRY ORBITAL -Q- MATRIX
 NUMBER OF CARTESIAN ATOMIC ORBITALS=         49
 NUMBER OF SPHERICAL CONTAMINANTS DROPPED=     3
 NUMBER OF LINEARLY DEPENDENT MOS DROPPED=     0
 TOTAL NUMBER OF MOS IN VARIATION SPACE=      46

 SYMMETRIES FOR INITIAL GUESS ORBITALS FOLLOW.   BOTH SET(S).
    16 ORBITALS ARE OCCUPIED (    7 CORE ORBITALS).
     8=A1       9=?B1     10=B2      11=?A1     12=A1      13=B1      14=A2  
    15=B1      16=A1      17=B2      18=B1      19=A1      20=A1      21=A1  
    22=A1      23=A1      24=A1      25=A1      26=A1  
 ...... END OF INITIAL ORBITAL SELECTION ......
 STEP CPU TIME =     0.01 TOTAL CPU TIME =        0.0 (    0.0 MIN)
 TOTAL WALL CLOCK TIME=        0.0 SECONDS, CPU UTILIZATION IS 100.00%

                    ----------------------
                    AO INTEGRAL TECHNOLOGY
                    ----------------------
     S,P,L SHELL ROTATED AXIS INTEGRALS, REPROGRAMMED BY
        KAZUYA ISHIMURA (IMS) AND JOSE SIERRA (SYNSTAR).
     S,P,D,L SHELL ROTATED AXIS INTEGRALS PROGRAMMED BY
        KAZUYA ISHIMURA (INSTITUTE FOR MOLECULAR SCIENCE).
     S,P,D,F,G SHELL TO TOTAL QUARTET ANGULAR MOMENTUM SUM 5,
        ERIC PROGRAM BY GRAHAM FLETCHER (ELORET AND NASA ADVANCED
        SUPERCOMPUTING DIVISION, AMES RESEARCH CENTER).
     S,P,D,F,G,L SHELL GENERAL RYS QUADRATURE PROGRAMMED BY
        MICHEL DUPUIS (PACIFIC NORTHWEST NATIONAL LABORATORY).

          --------------------
          2 ELECTRON INTEGRALS
          --------------------

 THE -PK- OPTION IS OFF, THE INTEGRALS ARE NOT IN SUPERMATRIX FORM.
 STORING   15000 INTEGRALS/RECORD ON DISK, USING 12 BYTES/INTEGRAL.
 TWO ELECTRON INTEGRAL EVALUATION REQUIRES   90606 WORDS OF MEMORY.
 II,JST,KST,LST =  1  1  1  1 NREC =         1 INTLOC =    1
 II,JST,KST,LST =  2  1  1  1 NREC =         1 INTLOC =    2
 II,JST,KST,LST =  3  1  1  1 NREC =         1 INTLOC =    7
 II,JST,KST,LST =  4  1  1  1 NREC =         1 INTLOC =   22
 II,JST,KST,LST =  5  1  1  1 NREC =         1 INTLOC =   56
 II,JST,KST,LST =  6  1  1  1 NREC =         1 INTLOC =  125
 II,JST,KST,LST =  7  1  1  1 NREC =         1 INTLOC =  329
 II,JST,KST,LST =  8  1  1  1 NREC =         1 INTLOC =  776
 II,JST,KST,LST =  9  1  1  1 NREC =         1 INTLOC = 2864
 II,JST,KST,LST = 10  1  1  1 NREC =         1 INTLOC = 2864
 II,JST,KST,LST = 11  1  1  1 NREC =         1 INTLOC = 2864
 II,JST,KST,LST = 12  1  1  1 NREC =         1 INTLOC = 2864
 II,JST,KST,LST = 13  1  1  1 NREC =         1 INTLOC = 2864
 II,JST,KST,LST = 14  1  1  1 NREC =         1 INTLOC = 2864
 II,JST,KST,LST = 15  1  1  1 NREC =         1 INTLOC = 2864
 II,JST,KST,LST = 16  1  1  1 NREC =         1 INTLOC = 5262
 II,JST,KST,LST = 17  1  1  1 NREC =         1 INTLOC = 8660
 II,JST,KST,LST = 18  1  1  1 NREC =         1 INTLOC =13169
 II,JST,KST,LST = 19  1  1  1 NREC =         3 INTLOC = 1946
 II,JST,KST,LST = 20  1  1  1 NREC =         5 INTLOC = 3610
 TOTAL NUMBER OF NONZERO TWO-ELECTRON INTEGRALS =              184631
         13 INTEGRAL RECORDS WERE STORED ON DISK FILE  8.
  ...... END OF TWO-ELECTRON INTEGRALS .....
 STEP CPU TIME =     0.17 TOTAL CPU TIME =        0.2 (    0.0 MIN)
 TOTAL WALL CLOCK TIME=        0.2 SECONDS, CPU UTILIZATION IS 100.00%

          --------------------------
               R-PBE SCF CALCULATION
          --------------------------

     NUCLEAR ENERGY =       143.2497405797
     MAXIT =   30     NPUNCH=    2
     EXTRAP=T  DAMP=F  SHIFT=F  RSTRCT=F  DIIS=T  DEM=F  SOSCF=F
         DENSITY MATRIX CONVERGENCE THRESHOLD=  1.00E-05
     COARSE -> FINE DFT GRID SWITCH THRESHOLD=  3.00E-04 (SWITCH IN $DFT)
                   HF -> DFT SWITCH THRESHOLD=  5.00E-03 (SWOFF IN $DFT)
     MEMORY REQUIRED FOR RHF ITERS=    183108 WORDS.

 DFT CODE IS SWITCHING FROM THE FINE GRID NRAD= 96,  NLEB=  302
                      TO THE COARSE GRID NRAD0= 24, NLEB0=  110

     EXCHANGE FUNCTIONAL   =PBE       
     CORRELATION FUNCTIONAL=PBE       
     DFT THRESHOLD         =.460E-07
     GRID CHANGE THRESHOLD =.300E-03
 FOR AN EULER-MACLAURIN QUADRATURE USING  96 RADIAL POINTS:
 SMALLEST GAUSSIAN PRIMITIVE EXPONENT=        0.1313100000 OF TYPE -P-
 ON ATOM NUMBER   1 HAS RADIAL NORMALIZATION=  1.000000
  LARGEST GAUSSIAN PRIMITIVE EXPONENT=    55510.0000000000 OF TYPE -S-
 ON ATOM NUMBER   1 HAS RADIAL NORMALIZATION=  0.999999
 DFT IS SWITCHED OFF, PERFORMING PURE SCF UNTIL SWOFF THRESHOLD IS REACHED.

 ITER EX DEM     TOTAL ENERGY        E CHANGE  DENSITY CHANGE    DIIS ERROR
   1  0  0     -544.9813740886  -544.9813740886   0.331569204   0.802312899
          * * *   INITIATING DIIS PROCEDURE   * * *
   2  1  0     -546.2913079887    -1.3099339001   0.497639043   0.151228119
   3  2  0     -546.3613453747    -0.0700373860   0.034895945   0.049766758
   4  3  0     -546.3685152594    -0.0071698847   0.041483427   0.015182074
   5  4  0     -546.3693596978    -0.0008444384   0.015054280   0.008306344
   6  5  0     -546.3694806857    -0.0001209878   0.002738769   0.001738442
 CONVERGED TO SWOFF, SO DFT CALCULATION IS NOW SWITCHED ON.
          * * *   INITIATING DIIS PROCEDURE   * * *
   7  6  0     -547.4352416839    -1.0657609982   0.113847957   0.089089963
   8  7  0     -547.4505305101    -0.0152888262   0.088335271   0.037878754
   9  8  0     -547.4496002448     0.0009302653   0.032826391   0.044344787
  10  9  0     -547.4543287103    -0.0047284655   0.010199904   0.005429295
  11 10  0     -547.4543947052    -0.0000659949   0.000915849   0.000464927
  12 11  0     -547.4543950989    -0.0000003937   0.000014041   0.000014613
 DFT CODE IS SWITCHING BACK TO THE FINE GRID
          * * *   INITIATING DIIS PROCEDURE   * * *
  13 12  0     -547.4170396396     0.0373554593   0.011359681   0.008564769
  14 13  0     -547.4172929465    -0.0002533068   0.002228863   0.002409074
  15 14  0     -547.4172954762    -0.0000025298   0.001380406   0.002509891
  16 15  0     -547.4173041734    -0.0000086972   0.000610324   0.000541921
  17 16  0     -547.4173049801    -0.0000008066   0.000219737   0.000062717
  18 17  0     -547.4173049934    -0.0000000134   0.000016608   0.000002469
  19 18  0     -547.4173049935     0.0000000000   0.000002074   0.000000842
  20 19  0     -547.4173049935     0.0000000000   0.000000149   0.000000029

          -----------------
          DENSITY CONVERGED
          -----------------
     TIME TO FORM FOCK OPERATORS=       4.6 SECONDS (       0.2 SEC/ITER)
     TIME TO SOLVE SCF EQUATIONS=       0.0 SECONDS (       0.0 SEC/ITER)

 FINAL R-PBE ENERGY IS     -547.4173049935 AFTER  20 ITERATIONS
 DFT EXCHANGE + CORRELATION ENERGY =       -43.4246227908
 TOTAL ELECTRON NUMBER             =        32.0000070087

          ------------
          EIGENVECTORS
          ------------

                      1          2          3          4          5
                  -88.1076   -18.7056   -18.7056    -7.8036    -5.8222
                     A1         A1         B1         A1         B1  
    1  S  1  S    1.002971  -0.000137   0.000000  -0.273530   0.000000
    2  S  1  S   -0.010087  -0.000319   0.000000   1.038242   0.000000
    3  S  1  S    0.002103  -0.002888   0.000000   0.044735   0.000000
    4  S  1  S   -0.000417   0.010760   0.000000  -0.008042   0.000000
    5  S  1  X    0.000000   0.000000  -0.000326   0.000000   0.992886
    6  S  1  Y    0.000000   0.000000   0.000000   0.000000   0.000000
    7  S  1  Z    0.000025   0.000123   0.000000   0.017429   0.000000
    8  S  1  X    0.000000   0.000000   0.003511   0.000000   0.014855
    9  S  1  Y    0.000000   0.000000   0.000000   0.000000   0.000000
   10  S  1  Z    0.000357  -0.002371   0.000000   0.004221   0.000000
   11  S  1  X    0.000000   0.000000  -0.003217   0.000000   0.000053
   12  S  1  Y    0.000000   0.000000   0.000000   0.000000   0.000000
   13  S  1  Z    0.000027   0.004519   0.000000   0.000176   0.000000
   14  S  1 XX    0.000124  -0.000536   0.000000   0.001135   0.000000
   15  S  1 YY   -0.000146   0.001500   0.000000  -0.001422   0.000000
   16  S  1 ZZ    0.000021  -0.000964   0.000000   0.000287   0.000000
   17  S  1 XY    0.000000   0.000000   0.000000   0.000000   0.000000
   18  S  1 XZ    0.000000   0.000000   0.004028   0.000000   0.004097
   19  S  1 YZ    0.000000   0.000000   0.000000   0.000000   0.000000
   20  O  2  S   -0.000008   0.703060   0.703210  -0.002344   0.003864
   21  O  2  S   -0.000094   0.027685   0.028548   0.001259  -0.003289
   22  O  2  S   -0.000348  -0.013294  -0.011663  -0.002747   0.001584
   23  O  2  X   -0.000120   0.002349   0.002287   0.002132  -0.004060
   24  O  2  Y    0.000000   0.000000   0.000000   0.000000   0.000000
   25  O  2  Z    0.000094  -0.001566  -0.002247  -0.001945   0.004399
   26  O  2  X   -0.000209  -0.001551  -0.002259  -0.002167   0.000582
   27  O  2  Y    0.000000   0.000000   0.000000   0.000000   0.000000
   28  O  2  Z    0.000213   0.001338   0.001189   0.002080  -0.000789
   29  O  2 XX   -0.000010   0.000871  -0.000399   0.000812  -0.000931
   30  O  2 YY    0.000015  -0.000636   0.000140  -0.001235   0.001877
   31  O  2 ZZ   -0.000005  -0.000235   0.000259   0.000422  -0.000946
   32  O  2 XY    0.000000   0.000000   0.000000   0.000000   0.000000
   33  O  2 XZ    0.000009  -0.000363  -0.000829  -0.002335   0.002868
   34  O  2 YZ    0.000000   0.000000   0.000000   0.000000   0.000000
   35  O  3  S   -0.000008   0.703060  -0.703210  -0.002344  -0.003864
   36  O  3  S   -0.000094   0.027685  -0.028548   0.001259   0.003289
   37  O  3  S   -0.000348  -0.013294   0.011663  -0.002747  -0.001584
   38  O  3  X    0.000120  -0.002349   0.002287  -0.002132  -0.004060
   39  O  3  Y    0.000000   0.000000   0.000000   0.000000   0.000000
   40  O  3  Z    0.000094  -0.001566   0.002247  -0.001945  -0.004399
   41  O  3  X    0.000209   0.001551  -0.002259   0.002167   0.000582
   42  O  3  Y    0.000000   0.000000   0.000000   0.000000   0.000000
   43  O  3  Z    0.000213   0.001338  -0.001189   0.002080   0.000789
   44  O  3 XX   -0.000010   0.000871   0.000399   0.000812   0.000931
   45  O  3 YY    0.000015  -0.000636  -0.000140  -0.001235  -0.001877
   46  O  3 ZZ   -0.000005  -0.000235  -0.000259   0.000422   0.000946
   47  O  3 XY    0.000000   0.000000   0.000000   0.000000   0.000000
   48  O  3 XZ   -0.000009   0.000363  -0.000829   0.002335   0.002868
   49  O  3 YZ    0.000000   0.000000   0.000000   0.000000   0.000000

                      6          7          8          9         10
                   -5.8120    -5.8114    -1.2706    -1.0415    -0.5791
                     A1         B2         A1         B1         B2  
    1  S  1  S    0.005868   0.000000   0.063335   0.000000   0.000000
    2  S  1  S   -0.022562   0.000000  -0.212543   0.000000   0.000000
    3  S  1  S    0.001176   0.000000   0.301932   0.000000   0.000000
    4  S  1  S    0.002692   0.000000   0.070005   0.000000   0.000000
    5  S  1  X    0.000000   0.000000   0.000000  -0.225134   0.000000
    6  S  1  Y    0.000000   0.995640   0.000000   0.000000  -0.212739
    7  S  1  Z    0.993725   0.000000  -0.140961   0.000000   0.000000
    8  S  1  X    0.000000   0.000000   0.000000   0.343143   0.000000
    9  S  1  Y    0.000000   0.012382   0.000000   0.000000   0.453321
   10  S  1  Z    0.013809   0.000000   0.188077   0.000000   0.000000
   11  S  1  X    0.000000   0.000000   0.000000   0.021990   0.000000
   12  S  1  Y    0.000000  -0.000802   0.000000   0.000000   0.119354
   13  S  1  Z    0.000277   0.000000  -0.007172   0.000000   0.000000
   14  S  1 XX   -0.000963   0.000000   0.021363   0.000000   0.000000
   15  S  1 YY   -0.001829   0.000000  -0.044636   0.000000   0.000000
   16  S  1 ZZ    0.002793   0.000000   0.023272   0.000000   0.000000
   17  S  1 XY    0.000000   0.000000   0.000000   0.000000   0.000000
   18  S  1 XZ    0.000000   0.000000   0.000000   0.123233   0.000000
   19  S  1 YZ    0.000000   0.001691   0.000000   0.000000   0.098967
   20  O  2  S   -0.003050   0.000000  -0.130030   0.155335   0.000000
   21  O  2  S    0.003536   0.000000   0.233080  -0.271583   0.000000
   22  O  2  S   -0.001782   0.000000   0.189460  -0.262149   0.000000
   23  O  2  X    0.004277   0.000000   0.145358  -0.097458   0.000000
   24  O  2  Y    0.000000   0.001097   0.000000   0.000000   0.334773
   25  O  2  Z   -0.002857   0.000000  -0.093196   0.137474   0.000000
   26  O  2  X   -0.001144   0.000000   0.022721  -0.016618   0.000000
   27  O  2  Y    0.000000  -0.000589   0.000000   0.000000   0.151823
   28  O  2  Z   -0.000047   0.000000  -0.016651   0.020969   0.000000
   29  O  2 XX    0.001083   0.000000   0.010594  -0.008076   0.000000
   30  O  2 YY   -0.001146   0.000000  -0.012215   0.015761   0.000000
   31  O  2 ZZ    0.000062   0.000000   0.001621  -0.007685   0.000000
   32  O  2 XY    0.000000   0.000534   0.000000   0.000000   0.025705
   33  O  2 XZ   -0.002174   0.000000  -0.022958   0.027787   0.000000
   34  O  2 YZ    0.000000  -0.000599   0.000000   0.000000  -0.019723
   35  O  3  S   -0.003050   0.000000  -0.130030  -0.155335   0.000000
   36  O  3  S    0.003536   0.000000   0.233080   0.271583   0.000000
   37  O  3  S   -0.001782   0.000000   0.189460   0.262149   0.000000
   38  O  3  X   -0.004277   0.000000  -0.145358  -0.097458   0.000000
   39  O  3  Y    0.000000   0.001097   0.000000   0.000000   0.334773
   40  O  3  Z   -0.002857   0.000000  -0.093196  -0.137474   0.000000
   41  O  3  X    0.001144   0.000000  -0.022721  -0.016618   0.000000
   42  O  3  Y    0.000000  -0.000589   0.000000   0.000000   0.151823
   43  O  3  Z   -0.000047   0.000000  -0.016651  -0.020969   0.000000
   44  O  3 XX    0.001083   0.000000   0.010594   0.008076   0.000000
   45  O  3 YY   -0.001146   0.000000  -0.012215  -0.015761   0.000000
   46  O  3 ZZ    0.000062   0.000000   0.001621   0.007685   0.000000
   47  O  3 XY    0.000000  -0.000534   0.000000   0.000000  -0.025705
   48  O  3 XZ    0.002174   0.000000   0.022958   0.027787   0.000000
   49  O  3 YZ    0.000000  -0.000599   0.000000   0.000000  -0.019723

                     11         12         13         14         15
                   -0.5786    -0.4663    -0.4135    -0.3642    -0.2905
                     A1         A1         B1         A2         A1  
    1  S  1  S   -0.041169   0.037288   0.000000   0.000000   0.020912
    2  S  1  S    0.123032  -0.094353   0.000000   0.000000  -0.084263
    3  S  1  S   -0.247989   0.243317   0.000000   0.000000   0.117023
    4  S  1  S   -0.284395  -0.014329   0.000000   0.000000   0.772856
    5  S  1  X    0.000000   0.000000  -0.163476   0.000000   0.000000
    6  S  1  Y    0.000000   0.000000   0.000000   0.000000   0.000000
    7  S  1  Z   -0.161085  -0.066066   0.000000   0.000000   0.177877
    8  S  1  X    0.000000   0.000000   0.315111   0.000000   0.000000
    9  S  1  Y    0.000000   0.000000   0.000000   0.000000   0.000000
   10  S  1  Z    0.341950   0.112191   0.000000   0.000000  -0.359578
   11  S  1  X    0.000000   0.000000   0.000799   0.000000   0.000000
   12  S  1  Y    0.000000   0.000000   0.000000   0.000000   0.000000
   13  S  1  Z    0.099961  -0.069172   0.000000   0.000000  -0.185305
   14  S  1 XX   -0.103539  -0.067760   0.000000   0.000000  -0.165601
   15  S  1 YY   -0.020270   0.008615   0.000000   0.000000   0.068829
   16  S  1 ZZ    0.123809   0.059145   0.000000   0.000000   0.096772
   17  S  1 XY    0.000000   0.000000   0.000000  -0.187196   0.000000
   18  S  1 XZ    0.000000   0.000000   0.025175   0.000000   0.000000
   19  S  1 YZ    0.000000   0.000000   0.000000   0.000000   0.000000
   20  O  2  S   -0.026334   0.088019  -0.069039   0.000000   0.022240
   21  O  2  S    0.042656  -0.180155   0.147194   0.000000  -0.041367
   22  O  2  S    0.087136  -0.321495   0.302482   0.000000  -0.124552
   23  O  2  X    0.157078   0.349406  -0.201187   0.000000  -0.002056
   24  O  2  Y    0.000000   0.000000   0.000000   0.469298   0.000000
   25  O  2  Z    0.259860  -0.096413   0.355368   0.000000   0.345790
   26  O  2  X    0.070702   0.182219  -0.104096   0.000000   0.010924
   27  O  2  Y    0.000000   0.000000   0.000000   0.305333   0.000000
   28  O  2  Z    0.111971  -0.051983   0.190322   0.000000   0.257224
   29  O  2 XX    0.021518   0.020143  -0.000481   0.000000   0.001268
   30  O  2 YY   -0.001387  -0.013406   0.017674   0.000000   0.011021
   31  O  2 ZZ   -0.020131  -0.006737  -0.017193   0.000000  -0.012289
   32  O  2 XY    0.000000   0.000000   0.000000   0.024366   0.000000
   33  O  2 XZ    0.009551  -0.016938   0.024938   0.000000   0.027467
   34  O  2 YZ    0.000000   0.000000   0.000000  -0.024454   0.000000
   35  O  3  S   -0.026334   0.088019   0.069039   0.000000   0.022240
   36  O  3  S    0.042656  -0.180155  -0.147194   0.000000  -0.041367
   37  O  3  S    0.087136  -0.321495  -0.302482   0.000000  -0.124552
   38  O  3  X   -0.157078  -0.349406  -0.201187   0.000000   0.002056
   39  O  3  Y    0.000000   0.000000   0.000000  -0.469298   0.000000
   40  O  3  Z    0.259860  -0.096413  -0.355368   0.000000   0.345790
   41  O  3  X   -0.070702  -0.182219  -0.104096   0.000000  -0.010924
   42  O  3  Y    0.000000   0.000000   0.000000  -0.305333   0.000000
   43  O  3  Z    0.111971  -0.051983  -0.190322   0.000000   0.257224
   44  O  3 XX    0.021518   0.020143   0.000481   0.000000   0.001268
   45  O  3 YY   -0.001387  -0.013406  -0.017674   0.000000   0.011021
   46  O  3 ZZ   -0.020131  -0.006737   0.017193   0.000000  -0.012289
   47  O  3 XY    0.000000   0.000000   0.000000   0.024366   0.000000
   48  O  3 XZ   -0.009551   0.016938   0.024938   0.000000  -0.027467
   49  O  3 YZ    0.000000   0.000000   0.000000   0.024454   0.000000

                     16         17         18         19         20
                   -0.2650    -0.0598     0.1121     0.1325     0.3359
                     B1         B2         B1         A1         B2  
    1  S  1  S    0.000000   0.000000   0.000000   0.004293   0.000000
    2  S  1  S    0.000000   0.000000   0.000000  -0.112992   0.000000
    3  S  1  S    0.000000   0.000000   0.000000  -0.085855   0.000000
    4  S  1  S    0.000000   0.000000   0.000000   1.786850   0.000000
    5  S  1  X    0.006420   0.000000  -0.076160   0.000000   0.000000
    6  S  1  Y    0.000000  -0.180912   0.000000   0.000000  -0.304655
    7  S  1  Z    0.000000   0.000000   0.000000  -0.020583   0.000000
    8  S  1  X    0.029858   0.000000   0.227906   0.000000   0.000000
    9  S  1  Y    0.000000   0.486525   0.000000   0.000000   1.140798
   10  S  1  Z    0.000000   0.000000   0.000000   0.135608   0.000000
   11  S  1  X    0.163735   0.000000   1.455054   0.000000   0.000000
   12  S  1  Y    0.000000   0.842761   0.000000   0.000000  -1.098110
   13  S  1  Z    0.000000   0.000000   0.000000   1.516779   0.000000
   14  S  1 XX    0.000000   0.000000   0.000000  -0.095818   0.000000
   15  S  1 YY    0.000000   0.000000   0.000000   0.281358   0.000000
   16  S  1 ZZ    0.000000   0.000000   0.000000  -0.185540   0.000000
   17  S  1 XY    0.000000   0.000000   0.000000   0.000000   0.000000
   18  S  1 XZ   -0.168225   0.000000  -0.212162   0.000000   0.000000
   19  S  1 YZ    0.000000  -0.189379   0.000000   0.000000   0.021580
   20  O  2  S   -0.027275   0.000000  -0.049972   0.069464   0.000000
   21  O  2  S    0.046392   0.000000   0.042712  -0.057218   0.000000
   22  O  2  S    0.117438   0.000000   0.637303  -1.115223   0.000000
   23  O  2  X    0.460980   0.000000  -0.146718  -0.069611   0.000000
   24  O  2  Y    0.000000  -0.305287   0.000000   0.000000  -0.033212
   25  O  2  Z    0.195627   0.000000  -0.244674  -0.004498   0.000000
   26  O  2  X    0.295167   0.000000  -0.265404  -0.257057   0.000000
   27  O  2  Y    0.000000  -0.403827   0.000000   0.000000  -0.045730
   28  O  2  Z    0.166744   0.000000  -0.317241  -0.039118   0.000000
   29  O  2 XX    0.034986   0.000000  -0.001955  -0.023446   0.000000
   30  O  2 YY   -0.007588   0.000000  -0.007868   0.030307   0.000000
   31  O  2 ZZ   -0.027398   0.000000   0.009823  -0.006862   0.000000
   32  O  2 XY    0.000000  -0.011545   0.000000   0.000000   0.031781
   33  O  2 XZ   -0.024082   0.000000  -0.015853   0.007377   0.000000
   34  O  2 YZ    0.000000  -0.002679   0.000000   0.000000  -0.025956
   35  O  3  S    0.027275   0.000000   0.049972   0.069464   0.000000
   36  O  3  S   -0.046392   0.000000  -0.042712  -0.057218   0.000000
   37  O  3  S   -0.117438   0.000000  -0.637303  -1.115223   0.000000
   38  O  3  X    0.460980   0.000000  -0.146718   0.069611   0.000000
   39  O  3  Y    0.000000  -0.305287   0.000000   0.000000  -0.033212
   40  O  3  Z   -0.195627   0.000000   0.244674  -0.004498   0.000000
   41  O  3  X    0.295167   0.000000  -0.265404   0.257057   0.000000
   42  O  3  Y    0.000000  -0.403827   0.000000   0.000000  -0.045730
   43  O  3  Z   -0.166744   0.000000   0.317241  -0.039118   0.000000
   44  O  3 XX   -0.034986   0.000000   0.001955  -0.023446   0.000000
   45  O  3 YY    0.007588   0.000000   0.007868   0.030307   0.000000
   46  O  3 ZZ    0.027398   0.000000  -0.009823  -0.006862   0.000000
   47  O  3 XY    0.000000   0.011545   0.000000   0.000000  -0.031781
   48  O  3 XZ   -0.024082   0.000000  -0.015853  -0.007377   0.000000
   49  O  3 YZ    0.000000  -0.002679   0.000000   0.000000  -0.025956

                     21         22         23         24         25
                    0.3964     0.4662     0.4898     0.6516     0.6549
                     A1         B1         A1         A1         B1  
    1  S  1  S   -0.067659   0.000000  -0.017725   0.057091   0.000000
    2  S  1  S   -0.173974   0.000000   0.097289   0.295160   0.000000
    3  S  1  S   -0.949895   0.000000  -0.069974   0.996166   0.000000
    4  S  1  S    1.623556   0.000000   2.295475   0.105620   0.000000
    5  S  1  X    0.000000   0.140701   0.000000   0.000000  -0.242508
    6  S  1  Y    0.000000   0.000000   0.000000   0.000000   0.000000
    7  S  1  Z   -0.247039   0.000000  -0.003628  -0.059149   0.000000
    8  S  1  X    0.000000  -0.262563   0.000000   0.000000   1.341429
    9  S  1  Y    0.000000   0.000000   0.000000   0.000000   0.000000
   10  S  1  Z    1.009073   0.000000   0.256472   0.421557   0.000000
   11  S  1  X    0.000000   1.041954   0.000000   0.000000  -0.408945
   12  S  1  Y    0.000000   0.000000   0.000000   0.000000   0.000000
   13  S  1  Z   -0.602547   0.000000   0.602289   0.511507   0.000000
   14  S  1 XX   -0.130883   0.000000   0.518012  -0.527079   0.000000
   15  S  1 YY    0.205888   0.000000  -0.689699  -0.071824   0.000000
   16  S  1 ZZ   -0.075005   0.000000   0.171687   0.598903   0.000000
   17  S  1 XY    0.000000   0.000000   0.000000   0.000000   0.000000
   18  S  1 XZ    0.000000   0.712838   0.000000   0.000000  -0.125496
   19  S  1 YZ    0.000000   0.000000   0.000000   0.000000   0.000000
   20  O  2  S    0.016890  -0.017203   0.032795   0.027182  -0.058061
   21  O  2  S   -0.040189  -0.021046  -0.016134  -0.027732   0.073738
   22  O  2  S   -0.304805   1.059683  -1.235341  -0.404257   0.750274
   23  O  2  X    0.017494  -0.179664   0.196200   0.193145  -0.087696
   24  O  2  Y    0.000000   0.000000   0.000000   0.000000   0.000000
   25  O  2  Z   -0.028470   0.198012  -0.245469   0.124304   0.148022
   26  O  2  X   -0.219011   0.638775  -0.519835  -0.885565   0.962184
   27  O  2  Y    0.000000   0.000000   0.000000   0.000000   0.000000
   28  O  2  Z    0.084776  -0.312942   0.672633  -0.155270  -0.885557
   29  O  2 XX    0.011278  -0.004963  -0.006953   0.022985   0.031000
   30  O  2 YY    0.021554  -0.022927  -0.005750  -0.003053  -0.000343
   31  O  2 ZZ   -0.032831   0.027890   0.012703  -0.019932  -0.030657
   32  O  2 XY    0.000000   0.000000   0.000000   0.000000   0.000000
   33  O  2 XZ    0.015857  -0.026317   0.047244  -0.004354  -0.012645
   34  O  2 YZ    0.000000   0.000000   0.000000   0.000000   0.000000
   35  O  3  S    0.016890   0.017203   0.032795   0.027182   0.058061
   36  O  3  S   -0.040189   0.021046  -0.016134  -0.027732  -0.073738
   37  O  3  S   -0.304805  -1.059683  -1.235341  -0.404257  -0.750274
   38  O  3  X   -0.017494  -0.179664  -0.196200  -0.193145  -0.087696
   39  O  3  Y    0.000000   0.000000   0.000000   0.000000   0.000000
   40  O  3  Z   -0.028470  -0.198012  -0.245469   0.124304  -0.148022
   41  O  3  X    0.219011   0.638775   0.519835   0.885565   0.962184
   42  O  3  Y    0.000000   0.000000   0.000000   0.000000   0.000000
   43  O  3  Z    0.084776   0.312942   0.672633  -0.155270   0.885557
   44  O  3 XX    0.011278   0.004963  -0.006953   0.022985  -0.031000
   45  O  3 YY    0.021554   0.022927  -0.005750  -0.003053   0.000343
   46  O  3 ZZ   -0.032831  -0.027890   0.012703  -0.019932   0.030657
   47  O  3 XY    0.000000   0.000000   0.000000   0.000000   0.000000
   48  O  3 XZ   -0.015857  -0.026317  -0.047244   0.004354  -0.012645
   49  O  3 YZ    0.000000   0.000000   0.000000   0.000000   0.000000

                     26         27         28         29         30
                    0.6994     0.7144     0.7367     0.7863     0.8010
                     A2         B2         A1         A2         B2  
    1  S  1  S    0.000000   0.000000   0.083014   0.000000   0.000000
    2  S  1  S    0.000000   0.000000   0.508011   0.000000   0.000000
    3  S  1  S    0.000000   0.000000   1.543172   0.000000   0.000000
    4  S  1  S    0.000000   0.000000  -0.642705   0.000000   0.000000
    5  S  1  X    0.000000   0.000000   0.000000   0.000000   0.000000
    6  S  1  Y    0.000000  -0.016912   0.000000   0.000000  -0.048190
    7  S  1  Z    0.000000   0.000000  -0.104638   0.000000   0.000000
    8  S  1  X    0.000000   0.000000   0.000000   0.000000   0.000000
    9  S  1  Y    0.000000   0.068057   0.000000   0.000000   0.071283
   10  S  1  Z    0.000000   0.000000   0.536771   0.000000   0.000000
   11  S  1  X    0.000000   0.000000   0.000000   0.000000   0.000000
   12  S  1  Y    0.000000   0.652536   0.000000   0.000000  -0.944498
   13  S  1  Z    0.000000   0.000000  -0.949759   0.000000   0.000000
   14  S  1 XX    0.000000   0.000000   0.035322   0.000000   0.000000
   15  S  1 YY    0.000000   0.000000   0.472742   0.000000   0.000000
   16  S  1 ZZ    0.000000   0.000000  -0.508064   0.000000   0.000000
   17  S  1 XY    0.955056   0.000000   0.000000   0.527659   0.000000
   18  S  1 XZ    0.000000   0.000000   0.000000   0.000000   0.000000
   19  S  1 YZ    0.000000   1.066487   0.000000   0.000000  -0.101937
   20  O  2  S    0.000000   0.000000   0.025869   0.000000   0.000000
   21  O  2  S    0.000000   0.000000   0.043319   0.000000   0.000000
   22  O  2  S    0.000000   0.000000  -0.044289   0.000000   0.000000
   23  O  2  X    0.000000   0.000000  -0.073818   0.000000   0.000000
   24  O  2  Y   -0.111499  -0.233257   0.000000   0.659838  -0.646374
   25  O  2  Z    0.000000   0.000000  -0.208666   0.000000   0.000000
   26  O  2  X    0.000000   0.000000  -0.287176   0.000000   0.000000
   27  O  2  Y    0.803372  -0.465842   0.000000  -0.557095   0.998447
   28  O  2  Z    0.000000   0.000000   0.967793   0.000000   0.000000
   29  O  2 XX    0.000000   0.000000   0.003387   0.000000   0.000000
   30  O  2 YY    0.000000   0.000000   0.006838   0.000000   0.000000
   31  O  2 ZZ    0.000000   0.000000  -0.010225   0.000000   0.000000
   32  O  2 XY   -0.016593   0.061255   0.000000   0.038482   0.022871
   33  O  2 XZ    0.000000   0.000000  -0.031131   0.000000   0.000000
   34  O  2 YZ    0.043363   0.027205   0.000000   0.037118   0.030728
   35  O  3  S    0.000000   0.000000   0.025869   0.000000   0.000000
   36  O  3  S    0.000000   0.000000   0.043319   0.000000   0.000000
   37  O  3  S    0.000000   0.000000  -0.044289   0.000000   0.000000
   38  O  3  X    0.000000   0.000000   0.073818   0.000000   0.000000
   39  O  3  Y    0.111499  -0.233257   0.000000  -0.659838  -0.646374
   40  O  3  Z    0.000000   0.000000  -0.208666   0.000000   0.000000
   41  O  3  X    0.000000   0.000000   0.287176   0.000000   0.000000
   42  O  3  Y   -0.803372  -0.465842   0.000000   0.557095   0.998447
   43  O  3  Z    0.000000   0.000000   0.967793   0.000000   0.000000
   44  O  3 XX    0.000000   0.000000   0.003387   0.000000   0.000000
   45  O  3 YY    0.000000   0.000000   0.006838   0.000000   0.000000
   46  O  3 ZZ    0.000000   0.000000  -0.010225   0.000000   0.000000
   47  O  3 XY   -0.016593  -0.061255   0.000000   0.038482  -0.022871
   48  O  3 XZ    0.000000   0.000000   0.031131   0.000000   0.000000
   49  O  3 YZ   -0.043363   0.027205   0.000000  -0.037118   0.030728

                     31         32         33         34         35
                    0.9357     0.9894     1.5626     1.6208     1.6412
                     B1         A1         A1         B1         A1  
    1  S  1  S    0.000000  -0.010629   0.041688   0.000000   0.040056
    2  S  1  S    0.000000  -0.061530  -0.035217   0.000000   0.000361
    3  S  1  S    0.000000  -0.193406   0.459452   0.000000   0.472851
    4  S  1  S    0.000000   0.045382  -1.184197   0.000000   2.693948
    5  S  1  X    0.048800   0.000000   0.000000  -0.130044   0.000000
    6  S  1  Y    0.000000   0.000000   0.000000   0.000000   0.000000
    7  S  1  Z    0.000000  -0.011788  -0.112000   0.000000  -0.201617
    8  S  1  X   -0.207058   0.000000   0.000000   0.842747   0.000000
    9  S  1  Y    0.000000   0.000000   0.000000   0.000000   0.000000
   10  S  1  Z    0.000000  -0.030397   0.320632   0.000000   1.078046
   11  S  1  X    1.187060   0.000000   0.000000   0.910608   0.000000
   12  S  1  Y    0.000000   0.000000   0.000000   0.000000   0.000000
   13  S  1  Z    0.000000   0.105968  -0.581872   0.000000   0.977813
   14  S  1 XX    0.000000  -0.702738   0.447342   0.000000   0.500383
   15  S  1 YY    0.000000  -0.042129  -0.287817   0.000000  -0.697446
   16  S  1 ZZ    0.000000   0.744867  -0.159525   0.000000   0.197063
   17  S  1 XY    0.000000   0.000000   0.000000   0.000000   0.000000
   18  S  1 XZ    0.142840   0.000000   0.000000   0.395865   0.000000
   19  S  1 YZ    0.000000   0.000000   0.000000   0.000000   0.000000
   20  O  2  S    0.011589   0.002562   0.024850  -0.004808   0.021087
   21  O  2  S    0.018590   0.037813  -1.037464  -1.002182   0.581257
   22  O  2  S    0.099517  -0.012774   1.193104   2.347528  -2.522507
   23  O  2  X    0.404009  -0.423272  -0.296351   0.273233  -0.493579
   24  O  2  Y    0.000000   0.000000   0.000000   0.000000   0.000000
   25  O  2  Z    0.446237  -0.493397   0.201200  -0.206530   0.370422
   26  O  2  X   -1.113367   0.202623   0.262799   0.394885  -0.279026
   27  O  2  Y    0.000000   0.000000   0.000000   0.000000   0.000000
   28  O  2  Z   -0.825935   0.036567  -0.069741  -0.389289   0.197258
   29  O  2 XX    0.044155   0.054002   0.247103  -0.147923   0.109094
   30  O  2 YY   -0.026236   0.013283  -0.235224   0.210418  -0.109002
   31  O  2 ZZ   -0.017919  -0.067285  -0.011879  -0.062495  -0.000093
   32  O  2 XY    0.000000   0.000000   0.000000   0.000000   0.000000
   33  O  2 XZ    0.029247   0.022414   0.170122   0.106494  -0.172676
   34  O  2 YZ    0.000000   0.000000   0.000000   0.000000   0.000000
   35  O  3  S   -0.011589   0.002562   0.024850   0.004808   0.021087
   36  O  3  S   -0.018590   0.037813  -1.037464   1.002182   0.581257
   37  O  3  S   -0.099517  -0.012774   1.193104  -2.347528  -2.522507
   38  O  3  X    0.404009   0.423272   0.296351   0.273233   0.493579
   39  O  3  Y    0.000000   0.000000   0.000000   0.000000   0.000000
   40  O  3  Z   -0.446237  -0.493397   0.201200   0.206530   0.370422
   41  O  3  X   -1.113367  -0.202623  -0.262799   0.394885   0.279026
   42  O  3  Y    0.000000   0.000000   0.000000   0.000000   0.000000
   43  O  3  Z    0.825935   0.036567  -0.069741   0.389289   0.197258
   44  O  3 XX   -0.044155   0.054002   0.247103   0.147923   0.109094
   45  O  3 YY    0.026236   0.013283  -0.235224  -0.210418  -0.109002
   46  O  3 ZZ    0.017919  -0.067285  -0.011879   0.062495  -0.000093
   47  O  3 XY    0.000000   0.000000   0.000000   0.000000   0.000000
   48  O  3 XZ    0.029247  -0.022414  -0.170122   0.106494   0.172676
   49  O  3 YZ    0.000000   0.000000   0.000000   0.000000   0.000000

                     36         37         38         39         40
                    1.9595     1.9935     2.1262     2.1694     2.1991
                     B1         B2         A1         A2         B1  
    1  S  1  S    0.000000   0.000000   0.015957   0.000000   0.000000
    2  S  1  S    0.000000   0.000000  -0.079172   0.000000   0.000000
    3  S  1  S    0.000000   0.000000   0.100834   0.000000   0.000000
    4  S  1  S    0.000000   0.000000  -0.695780   0.000000   0.000000
    5  S  1  X   -0.213595   0.000000   0.000000   0.000000  -0.072915
    6  S  1  Y    0.000000  -0.010414   0.000000   0.000000   0.000000
    7  S  1  Z    0.000000   0.000000  -0.070941   0.000000   0.000000
    8  S  1  X    0.870511   0.000000   0.000000   0.000000   0.187609
    9  S  1  Y    0.000000   0.084901   0.000000   0.000000   0.000000
   10  S  1  Z    0.000000   0.000000   0.222889   0.000000   0.000000
   11  S  1  X    0.020602   0.000000   0.000000   0.000000  -0.031578
   12  S  1  Y    0.000000   0.036547   0.000000   0.000000   0.000000
   13  S  1  Z    0.000000   0.000000  -0.326619   0.000000   0.000000
   14  S  1 XX    0.000000   0.000000   0.207892   0.000000   0.000000
   15  S  1 YY    0.000000   0.000000  -0.485041   0.000000   0.000000
   16  S  1 ZZ    0.000000   0.000000   0.277148   0.000000   0.000000
   17  S  1 XY    0.000000   0.000000   0.000000  -0.062471   0.000000
   18  S  1 XZ    0.890453   0.000000   0.000000   0.000000   0.835121
   19  S  1 YZ    0.000000  -0.215686   0.000000   0.000000   0.000000
   20  O  2  S    0.002119   0.000000  -0.002695   0.000000   0.013989
   21  O  2  S    0.598863   0.000000  -0.662263   0.000000   0.578032
   22  O  2  S    0.205151   0.000000   0.775906   0.000000  -0.171951
   23  O  2  X    0.355529   0.000000  -0.197818   0.000000   0.206687
   24  O  2  Y    0.000000   0.086404   0.000000  -0.082809   0.000000
   25  O  2  Z   -0.398946   0.000000   0.091034   0.000000  -0.257201
   26  O  2  X    0.064642   0.000000   0.200479   0.000000   0.008535
   27  O  2  Y    0.000000  -0.080413   0.000000   0.121675   0.000000
   28  O  2  Z    0.120952   0.000000  -0.114146   0.000000   0.221195
   29  O  2 XX    0.098798   0.000000  -0.301139   0.000000   0.288173
   30  O  2 YY   -0.305928   0.000000   0.543758   0.000000   0.367286
   31  O  2 ZZ    0.207129   0.000000  -0.242619   0.000000  -0.655459
   32  O  2 XY    0.000000   0.368915   0.000000   0.601104   0.000000
   33  O  2 XZ    0.359056   0.000000  -0.357392   0.000000  -0.078776
   34  O  2 YZ    0.000000   0.602863   0.000000   0.403835   0.000000
   35  O  3  S   -0.002119   0.000000  -0.002695   0.000000  -0.013989
   36  O  3  S   -0.598863   0.000000  -0.662263   0.000000  -0.578032
   37  O  3  S   -0.205151   0.000000   0.775906   0.000000   0.171951
   38  O  3  X    0.355529   0.000000   0.197818   0.000000   0.206687
   39  O  3  Y    0.000000   0.086404   0.000000   0.082809   0.000000
   40  O  3  Z    0.398946   0.000000   0.091034   0.000000   0.257201
   41  O  3  X    0.064642   0.000000  -0.200479   0.000000   0.008535
   42  O  3  Y    0.000000  -0.080413   0.000000  -0.121675   0.000000
   43  O  3  Z   -0.120952   0.000000  -0.114146   0.000000  -0.221195
   44  O  3 XX   -0.098798   0.000000  -0.301139   0.000000  -0.288173
   45  O  3 YY    0.305928   0.000000   0.543758   0.000000  -0.367286
   46  O  3 ZZ   -0.207129   0.000000  -0.242619   0.000000   0.655459
   47  O  3 XY    0.000000  -0.368915   0.000000   0.601104   0.000000
   48  O  3 XZ    0.359056   0.000000   0.357392   0.000000  -0.078776
   49  O  3 YZ    0.000000   0.602863   0.000000  -0.403835   0.000000

                     41         42         43         44         45
                    2.5122     2.6443     2.6898     2.8017     2.9415
                     A2         B2         B1         A1         B1  
    1  S  1  S    0.000000   0.000000   0.000000   0.045517   0.000000
    2  S  1  S    0.000000   0.000000   0.000000   0.573308   0.000000
    3  S  1  S    0.000000   0.000000   0.000000   1.316858   0.000000
    4  S  1  S    0.000000   0.000000   0.000000   0.860935   0.000000
    5  S  1  X    0.000000   0.000000  -0.025810   0.000000  -0.205550
    6  S  1  Y    0.000000  -0.120079   0.000000   0.000000   0.000000
    7  S  1  Z    0.000000   0.000000   0.000000   0.071259   0.000000
    8  S  1  X    0.000000   0.000000   1.478171   0.000000   1.909306
    9  S  1  Y    0.000000   0.805506   0.000000   0.000000   0.000000
   10  S  1  Z    0.000000   0.000000   0.000000   0.282952   0.000000
   11  S  1  X    0.000000   0.000000   0.225105   0.000000   0.376063
   12  S  1  Y    0.000000   0.213781   0.000000   0.000000   0.000000
   13  S  1  Z    0.000000   0.000000   0.000000  -0.014513   0.000000
   14  S  1 XX    0.000000   0.000000   0.000000   1.031821   0.000000
   15  S  1 YY    0.000000   0.000000   0.000000  -0.213643   0.000000
   16  S  1 ZZ    0.000000   0.000000   0.000000  -0.818178   0.000000
   17  S  1 XY    0.829813   0.000000   0.000000   0.000000   0.000000
   18  S  1 XZ    0.000000   0.000000   0.535438   0.000000   1.081149
   19  S  1 YZ    0.000000   0.747087   0.000000   0.000000   0.000000
   20  O  2  S    0.000000   0.000000  -0.033298   0.018660   0.003149
   21  O  2  S    0.000000   0.000000  -0.642675   0.367480   0.478421
   22  O  2  S    0.000000   0.000000   2.319249  -1.307925   1.034400
   23  O  2  X    0.000000   0.000000   0.176500   0.002217   0.490910
   24  O  2  Y    0.041791  -0.084923   0.000000   0.000000   0.000000
   25  O  2  Z    0.000000   0.000000  -0.229931   0.254342  -0.353727
   26  O  2  X    0.000000   0.000000   1.119337  -0.308398   0.094063
   27  O  2  Y    0.366936  -0.399463   0.000000   0.000000   0.000000
   28  O  2  Z    0.000000   0.000000  -0.496696   0.710551  -0.583264
   29  O  2 XX    0.000000   0.000000   0.668202   0.400284  -0.390328
   30  O  2 YY    0.000000   0.000000  -0.604240   0.395279   0.035521
   31  O  2 ZZ    0.000000   0.000000  -0.063962  -0.795563   0.354808
   32  O  2 XY    0.499352  -0.756117   0.000000   0.000000   0.000000
   33  O  2 XZ    0.000000   0.000000  -0.477660   0.518155  -0.673793
   34  O  2 YZ   -0.698429   0.466824   0.000000   0.000000   0.000000
   35  O  3  S    0.000000   0.000000   0.033298   0.018660  -0.003149
   36  O  3  S    0.000000   0.000000   0.642675   0.367480  -0.478421
   37  O  3  S    0.000000   0.000000  -2.319249  -1.307925  -1.034400
   38  O  3  X    0.000000   0.000000   0.176500  -0.002217   0.490910
   39  O  3  Y   -0.041791  -0.084923   0.000000   0.000000   0.000000
   40  O  3  Z    0.000000   0.000000   0.229931   0.254342   0.353727
   41  O  3  X    0.000000   0.000000   1.119337   0.308398   0.094063
   42  O  3  Y   -0.366936  -0.399463   0.000000   0.000000   0.000000
   43  O  3  Z    0.000000   0.000000   0.496696   0.710551   0.583264
   44  O  3 XX    0.000000   0.000000  -0.668202   0.400284   0.390328
   45  O  3 YY    0.000000   0.000000   0.604240   0.395279  -0.035521
   46  O  3 ZZ    0.000000   0.000000   0.063962  -0.795563  -0.354808
   47  O  3 XY    0.499352   0.756117   0.000000   0.000000   0.000000
   48  O  3 XZ    0.000000   0.000000  -0.477660  -0.518155  -0.673793
   49  O  3 YZ    0.698429   0.466824   0.000000   0.000000   0.000000

                     46
                    2.9902
                     A1  
    1  S  1  S    0.078912
    2  S  1  S    0.795164
    3  S  1  S    2.042472
    4  S  1  S    1.223433
    5  S  1  X    0.000000
    6  S  1  Y    0.000000
    7  S  1  Z   -0.130474
    8  S  1  X    0.000000
    9  S  1  Y    0.000000
   10  S  1  Z    1.872376
   11  S  1  X    0.000000
   12  S  1  Y    0.000000
   13  S  1  Z    0.290565
   14  S  1 XX   -0.220708
   15  S  1 YY   -0.463423
   16  S  1 ZZ    0.684131
   17  S  1 XY    0.000000
   18  S  1 XZ    0.000000
   19  S  1 YZ    0.000000
   20  O  2  S    0.036757
   21  O  2  S    0.137024
   22  O  2  S   -1.781574
   23  O  2  X   -0.460040
   24  O  2  Y    0.000000
   25  O  2  Z    0.202917
   26  O  2  X   -0.795295
   27  O  2  Y    0.000000
   28  O  2  Z    0.408973
   29  O  2 XX   -0.743134
   30  O  2 YY    0.343389
   31  O  2 ZZ    0.399745
   32  O  2 XY    0.000000
   33  O  2 XZ    0.635656
   34  O  2 YZ    0.000000
   35  O  3  S    0.036757
   36  O  3  S    0.137024
   37  O  3  S   -1.781574
   38  O  3  X    0.460040
   39  O  3  Y    0.000000
   40  O  3  Z    0.202917
   41  O  3  X    0.795295
   42  O  3  Y    0.000000
   43  O  3  Z    0.408973
   44  O  3 XX   -0.743134
   45  O  3 YY    0.343389
   46  O  3 ZZ    0.399745
   47  O  3 XY    0.000000
   48  O  3 XZ   -0.635656
   49  O  3 YZ    0.000000
 ...... END OF RHF CALCULATION ......
 STEP CPU TIME =     4.61 TOTAL CPU TIME =        4.8 (    0.1 MIN)
 TOTAL WALL CLOCK TIME=        4.8 SECONDS, CPU UTILIZATION IS  99.79%

     ---------------------------------------------------------------------
     PROPERTIES FOR THE PBE      DFT FUNCTIONAL (RHF  TYPE) DENSITY MATRIX
     ---------------------------------------------------------------------

          -----------------
          ENERGY COMPONENTS
          -----------------

         WAVEFUNCTION NORMALIZATION =       1.0000000000

                ONE ELECTRON ENERGY =   -1038.4634269434
                TWO ELECTRON ENERGY =     347.7963813702
           NUCLEAR REPULSION ENERGY =     143.2497405797
                                      ------------------
                       TOTAL ENERGY =    -547.4173049935

 ELECTRON-ELECTRON POTENTIAL ENERGY =     347.7963813702
  NUCLEUS-ELECTRON POTENTIAL ENERGY =   -1592.0250003572
   NUCLEUS-NUCLEUS POTENTIAL ENERGY =     143.2497405797
                                      ------------------
             TOTAL POTENTIAL ENERGY =   -1100.9788784073
               TOTAL KINETIC ENERGY =     553.5615734138
                 VIRIAL RATIO (V/T) =       1.9889004788

          ---------------------------------------
          MULLIKEN AND LOWDIN POPULATION ANALYSES
          ---------------------------------------

     ATOMIC MULLIKEN POPULATION IN EACH MOLECULAR ORBITAL

                      1          2          3          4          5

                  2.000000   2.000000   2.000000   2.000000   2.000000

    1             2.000083   0.001549  -0.001562   2.001986   1.996156
    2            -0.000041   0.999226   1.000781  -0.000993   0.001922
    3            -0.000041   0.999226   1.000781  -0.000993   0.001922

                      6          7          8          9         10

                  2.000000   2.000000   2.000000   2.000000   2.000000

    1             1.997595   1.999835   0.749056   0.655208   0.871915
    2             0.001202   0.000083   0.625472   0.672396   0.564043
    3             0.001202   0.000083   0.625472   0.672396   0.564043

                     11         12         13         14         15

                  2.000000   2.000000   2.000000   2.000000   2.000000

    1             1.035457   0.197735   0.171916   0.231030   1.319751
    2             0.482272   0.901132   0.914042   0.884485   0.340125
    3             0.482272   0.901132   0.914042   0.884485   0.340125

                     16

                  2.000000

    1             0.287670
    2             0.856165
    3             0.856165

               ----- POPULATIONS IN EACH AO -----
                             MULLIKEN      LOWDIN
              1  S  1  S      2.00025     1.99599
              2  S  1  S      2.01197     1.87761
              3  S  1  S      0.84747     0.49916
              4  S  1  S      0.98094     0.58259
              5  S  1  X      1.99655     1.95662
              6  S  1  Y      1.99519     1.95494
              7  S  1  Z      1.99682     1.96511
              8  S  1  X      0.69685     0.60777
              9  S  1  Y      0.65097     0.56352
             10  S  1  Z      0.88633     0.82982
             11  S  1  X      0.16581     0.28369
             12  S  1  Y      0.16059     0.23252
             13  S  1  Z      0.22942     0.36531
             14  S  1 XX      0.19325     0.35909
             15  S  1 YY      0.15676     0.21061
             16  S  1 ZZ      0.23103     0.36367
             17  S  1 XY      0.25018     0.30603
             18  S  1 XZ      0.06500     0.31966
             19  S  1 YZ      0.00000     0.06496
             20  O  2  S      1.99839     1.97663
             21  O  2  S      0.78980     0.59504
             22  O  2  S      0.83246     0.46938
             23  O  2  X      1.17605     1.13772
             24  O  2  Y      0.95292     0.89595
             25  O  2  Z      1.09616     1.06802
             26  O  2  X      0.42321     0.49600
             27  O  2  Y      0.47839     0.51734
             28  O  2  Z      0.45101     0.54871
             29  O  2 XX      0.00958     0.19611
             30  O  2 YY      0.00427     0.17773
             31  O  2 ZZ      0.00941     0.18811
             32  O  2 XY      0.01277     0.01569
             33  O  2 XZ      0.00788     0.03821
             34  O  2 YZ      0.00000     0.01004
             35  O  3  S      1.99839     1.97663
             36  O  3  S      0.78980     0.59504
             37  O  3  S      0.83246     0.46938
             38  O  3  X      1.17605     1.13772
             39  O  3  Y      0.95292     0.89595
             40  O  3  Z      1.09616     1.06802
             41  O  3  X      0.42321     0.49600
             42  O  3  Y      0.47839     0.51734
             43  O  3  Z      0.45101     0.54871
             44  O  3 XX      0.00958     0.19611
             45  O  3 YY      0.00427     0.17773
             46  O  3 ZZ      0.00941     0.18811
             47  O  3 XY      0.01277     0.01569
             48  O  3 XZ      0.00788     0.03821
             49  O  3 YZ      0.00000     0.01004

          ----- MULLIKEN ATOMIC OVERLAP POPULATIONS -----
          (OFF-DIAGONAL ELEMENTS NEED TO BE MULTIPLIED BY 2)

             1           2           3

    1   14.4911315
    2    0.5121236   8.0673530
    3    0.5121236  -0.3371660   8.0673530

          TOTAL MULLIKEN AND LOWDIN ATOMIC POPULATIONS
       ATOM         MULL.POP.    CHARGE          LOW.POP.     CHARGE
    1 S            15.515379    0.484621        15.338667    0.661333
    2 O             8.242311   -0.242311         8.330667   -0.330667
    3 O             8.242311   -0.242311         8.330667   -0.330667

          MULLIKEN SPHERICAL HARMONIC POPULATIONS
       ATOM           S       P       D      F      G      H      I    TOTAL
    1 S             5.84    8.78    0.90   0.00   0.00   0.00   0.00   15.52
    2 O             3.62    4.58    0.04   0.00   0.00   0.00   0.00    8.24
    3 O             3.62    4.58    0.04   0.00   0.00   0.00   0.00    8.24

          -------------------------------
          BOND ORDER AND VALENCE ANALYSIS     BOND ORDER THRESHOLD=0.050
          -------------------------------

                   BOND                       BOND                       BOND
  ATOM PAIR DIST  ORDER      ATOM PAIR DIST  ORDER      ATOM PAIR DIST  ORDER
    1   2  1.100  2.164        1   3  1.100  2.164

                       TOTAL       BONDED        FREE
      ATOM            VALENCE     VALENCE     VALENCE
    1 S                 4.327       4.327       0.000
    2 O                 2.135       2.135       0.000
    3 O                 2.135       2.135       0.000

          ---------------------
          ELECTROSTATIC MOMENTS
          ---------------------

 POINT   1           X           Y           Z (BOHR)    CHARGE
                 0.000000    0.000000    0.000000        0.00 (A.U.)
         DX          DY          DZ         /D/  (DEBYE)
     0.000000    0.000000   -1.356557    1.356557
 ...... END OF PROPERTY EVALUATION ......
 STEP CPU TIME =     0.01 TOTAL CPU TIME =        4.8 (    0.1 MIN)
 TOTAL WALL CLOCK TIME=        4.8 SECONDS, CPU UTILIZATION IS 100.00%
               580000  WORDS OF DYNAMIC MEMORY USED
 EXECUTION OF GAMESS TERMINATED NORMALLY Thu Feb 26 00:11:21 2015
 DDI: 263624 bytes (0.3 MB / 0 MWords) used by master data server.

 ----------------------------------------
 CPU timing information for all processes
 ========================================
 0: 4.803 + 0.17 = 4.821
 ----------------------------------------
 ddikick.x: exited gracefully.
----- accounting info -----
Files used on the master node dftfe.crc.nd.edu were:
-rw-r--r-- 1 pmehta1 campus   37475 Feb 26 00:11 /tmp/gamess.dat
-rw-r--r-- 1 pmehta1 campus     142 Feb 26 00:11 /tmp/gamess.F05
-rw-r--r-- 1 pmehta1 campus 2340312 Feb 26 00:11 /tmp/gamess.F08
-rw-r--r-- 1 pmehta1 campus 1220440 Feb 26 00:11 /tmp/gamess.F10
Thu Feb 26 00:11:24 EST 2015
0.247u 0.172s 0:08.26 4.9%	0+0k 0+96io 0pf+0w
