----- GAMESS execution script 'rungms' -----
This job is running on host dftfe.crc.nd.edu
under operating system Linux at Thu Feb 26 00:11:51 EST 2015
Available scratch disk space (Kbyte units) at beginning of the job is
Filesystem     1K-blocks     Used Available Use% Mounted on
/dev/sda2      147771864 22809548 117455884  17% /
GAMESS temporary binary files will be written to /tmp
GAMESS supplementary output files will be written to /tmp
Copying input file gamess.inp to your run's scratch directory...

 Distributed Data Interface kickoff program.
 Initiating 1 compute processes on 1 nodes to run the following command:
 /opt/crc/gamess/2012R1/gamess/gamess.00.x gamess 

          ******************************************************
          *         GAMESS VERSION =  1 MAY 2012 (R1)          *
          *             FROM IOWA STATE UNIVERSITY             *
          * M.W.SCHMIDT, K.K.BALDRIDGE, J.A.BOATZ, S.T.ELBERT, *
          *   M.S.GORDON, J.H.JENSEN, S.KOSEKI, N.MATSUNAGA,   *
          *          K.A.NGUYEN, S.J.SU, T.L.WINDUS,           *
          *       TOGETHER WITH M.DUPUIS, J.A.MONTGOMERY       *
          *         J.COMPUT.CHEM.  14, 1347-1363(1993)        *
          **************** 64 BIT LINUX VERSION ****************

  SINCE 1993, STUDENTS AND POSTDOCS WORKING AT IOWA STATE UNIVERSITY
  AND ALSO IN THEIR VARIOUS JOBS AFTER LEAVING ISU HAVE MADE IMPORTANT
  CONTRIBUTIONS TO THE CODE:
     IVANA ADAMOVIC, CHRISTINE AIKENS, YURI ALEXEEV, POOJA ARORA,
     ANDREY ASADCHEV, ROB BELL, PRADIPTA BANDYOPADHYAY, JONATHAN BENTZ,
     BRETT BODE, GALINA CHABAN, WEI CHEN, CHEOL HO CHOI, PAUL DAY,
     ALBERT DEFUSCO, TIM DUDLEY, DMITRI FEDOROV, GRAHAM FLETCHER,
     MARK FREITAG, KURT GLAESEMANN, DAN KEMP, GRANT MERRILL,
     NORIYUKI MINEZAWA, JONATHAN MULLIN, TAKESHI NAGATA,
     SEAN NEDD, HEATHER NETZLOFF, BOSILJKA NJEGIC, RYAN OLSON, MIKE PAK,
     JIM SHOEMAKER, LYUDMILA SLIPCHENKO, SAROM SOK, JIE SONG,
     TETSUYA TAKETSUGU, SIMON WEBB, SOOHAENG YOO, FEDERICO ZAHARIEV

  ADDITIONAL CODE HAS BEEN PROVIDED BY COLLABORATORS IN OTHER GROUPS:
     IOWA STATE UNIVERSITY:
          JOE IVANIC, LAIMUTIS BYTAUTAS, KLAUS RUEDENBERG
     UNIVERSITY OF TOKYO: KIMIHIKO HIRAO, TAKAHITO NAKAJIMA,
          TAKAO TSUNEDA, MUNEAKI KAMIYA, SUSUMU YANAGISAWA,
          KIYOSHI YAGI, MAHITO CHIBA, SEIKEN TOKURA, NAOAKI KAWAKAMI
     UNIVERSITY OF AARHUS: FRANK JENSEN
     UNIVERSITY OF IOWA: VISVALDAS KAIRYS, HUI LI
     NATIONAL INST. OF STANDARDS AND TECHNOLOGY: WALT STEVENS, DAVID GARMER
     UNIVERSITY OF PISA: BENEDETTA MENNUCCI, JACOPO TOMASI
     UNIVERSITY OF MEMPHIS: HENRY KURTZ, PRAKASHAN KORAMBATH
     UNIVERSITY OF ALBERTA: TOBY ZENG, MARIUSZ KLOBUKOWSKI
     UNIVERSITY OF NEW ENGLAND: MARK SPACKMAN
     MIE UNIVERSITY: HIROAKI UMEDA
     MICHIGAN STATE UNIVERSITY:
          KAROL KOWALSKI, MARTA WLOCH, JEFFREY GOUR, JESSE LUTZ, PIOTR PIECUCH
     UNIVERSITY OF SILESIA: MONIKA MUSIAL, STANISLAW KUCHARSKI
     FACULTES UNIVERSITAIRES NOTRE-DAME DE LA PAIX:
          OLIVIER QUINET, BENOIT CHAMPAGNE
     UNIVERSITY OF CALIFORNIA - SANTA BARBARA: BERNARD KIRTMAN
     INSTITUTE FOR MOLECULAR SCIENCE:
          KAZUYA ISHIMURA, MICHIO KATOUDA, AND SHIGERU NAGASE
     UNIVERSITY OF NOTRE DAME: DAN CHIPMAN
     KYUSHU UNIVERSITY:
          HARUYUKI NAKANO,
          FENG LONG GU, JACEK KORCHOWIEC, MARCIN MAKOWSKI, AND YURIKO AOKI,
          HIROTOSHI MORI AND EISAKU MIYOSHI
     PENNSYLVANIA STATE UNIVERSITY:
          TZVETELIN IORDANOV, CHET SWALINA, JONATHAN SKONE,
          SHARON HAMMES-SCHIFFER
     WASEDA UNIVERSITY:
          MASATO KOBAYASHI, TOMOKO AKAMA, TSUGUKI TOUMA,
          TAKESHI YOSHIKAWA, YASUHIRO IKABATA, HIROMI NAKAI
     UNIVERSITY OF NEBRASKA:
          PEIFENG SU, DEJUN SI, NANDUN THELLAMUREGE, YALI WANG, HUI LI
     UNIVERSITY OF ZURICH:
          ROBERTO PEVERATI, KIM BALDRIDGE
     N. COPERNICUS UNIVERSITY AND JACKSON STATE UNIVERSITY:
          MARIA BARYSZ

 EXECUTION OF GAMESS BEGUN Thu Feb 26 00:11:51 2015

            ECHO OF THE FIRST FEW INPUT CARDS -
 INPUT CARD> $BASIS GBASIS=PC1 $END                                                         
 INPUT CARD> $CONTRL COORD=ZMT ISPHER=1 RUNTYP=ENERGY DFTTYP=PBE $END                       
 INPUT CARD>                                                                                
 INPUT CARD> $DATA                                                                          
 INPUT CARD>Title                                                                           
 INPUT CARD>Cnv 2                                                                           
 INPUT CARD>                                                                                
 INPUT CARD>S                                                                               
 INPUT CARD>O 1 1.10                                                                        
 INPUT CARD>O 1 1.10 2 140.0                                                                
 INPUT CARD> $END                                                                           
    1000000 WORDS OF MEMORY AVAILABLE

     BASIS OPTIONS
     -------------
     GBASIS=PC1          IGAUSS=       0      POLAR=NONE    
     NDFUNC=       0     NFFUNC=       0     DIFFSP=       F
     NPFUNC=       0      DIFFS=       F     BASNAM=        


     RUN TITLE
     ---------
 Title                                                                           

 THE POINT GROUP OF THE MOLECULE IS CNV     
 THE ORDER OF THE PRINCIPAL AXIS IS     2

 YOUR FULLY SUBSTITUTED Z-MATRIX IS
 S   
 O      1   1.1000000
 O      1   1.1000000  2  140.0000

 THE MOMENTS OF INERTIA ARE (AMU-ANGSTROM**2)
 IXX=     2.263   IYY=    34.180   IZZ=    36.443

 ATOM      ATOMIC                      COORDINATES (BOHR)
           CHARGE         X                   Y                   Z
 S          16.0     0.0000000000        0.0000000000       -0.3555770427
 O           8.0    -1.9533377226        0.0000000000        0.3553797458
 O           8.0     1.9533377226        0.0000000000        0.3553797458

          INTERNUCLEAR DISTANCES (ANGS.)
          ------------------------------

                1 S          2 O          3 O     

   1 S       0.0000000    1.1000000 *  1.1000000 *
   2 O       1.1000000 *  0.0000000    2.0673238 *
   3 O       1.1000000 *  2.0673238 *  0.0000000  

  * ... LESS THAN  3.000


     ATOMIC BASIS SET
     ----------------
 THE CONTRACTED PRIMITIVE FUNCTIONS HAVE BEEN UNNORMALIZED
 THE CONTRACTED BASIS FUNCTIONS ARE NOW NORMALIZED TO UNITY

  SHELL TYPE  PRIMITIVE        EXPONENT          CONTRACTION COEFFICIENT(S)

 S         

      1   S       1         55510.0000000    0.000587229760
      1   S       2          8326.7000000    0.004532413947
      1   S       3          1895.6000000    0.023265261648
      1   S       4           536.7700000    0.089696133027
      1   S       5           174.6700000    0.254098332277
      1   S       6            62.5780000    0.438665087637
      1   S       7            23.5730000    0.314547135094
      1   S       8             5.8908000    0.032727897102

      2   S       9          8326.7000000   -0.000019755715
      2   S      10          1895.6000000   -0.000043822381
      2   S      11           536.7700000   -0.001730264906
      2   S      12           174.6700000   -0.009381263460
      2   S      13            62.5780000   -0.064050766303
      2   S      14            23.5730000   -0.082478179196
      2   S      15             5.8908000    0.478342956889
      2   S      16             2.1852000    0.626896670208

      3   S      17          1895.6000000    0.000016227260
      3   S      18           536.7700000    0.000191135619
      3   S      19           174.6700000    0.001952069674
      3   S      20            62.5780000    0.010578701087
      3   S      21            23.5730000    0.022164934551
      3   S      22             5.8908000   -0.184968323118
      3   S      23             2.1852000   -0.480920750976
      3   S      24             0.4528200    1.243822243872

      4   S      25             0.1620200    1.000000000000

      5   P      26           395.4500000    0.004642761329
      5   P      27            92.8340000    0.036023396489
      5   P      28            29.2660000    0.149058869978
      5   P      29            10.5950000    0.360033266263
      5   P      30             4.0272000    0.455756476221
      5   P      31             1.5484000    0.206167664178

      6   P      32            92.8340000    0.000169901442
      6   P      33            29.2660000   -0.002541839934
      6   P      34            10.5950000   -0.007867614595
      6   P      35             4.0272000   -0.037231009184
      6   P      36             1.5484000    0.161417246830
      6   P      37             0.4613400    0.902230419976

      7   P      38             0.1313100    1.000000000000

      8   D      39             0.5500000    1.000000000000

 O         

     15   S      40          2306.7000000    0.005424388755
     15   S      41           347.1500000    0.040474749465
     15   S      42            78.8900000    0.180219634554
     15   S      43            21.8760000    0.462370311787
     15   S      44             6.6646000    0.454888396263

     16   S      45           347.1500000   -0.000655003786
     16   S      46            78.8900000   -0.005362052952
     16   S      47            21.8760000   -0.074902158894
     16   S      48             6.6646000   -0.181442579655
     16   S      49             1.0669000    1.102006874042

     17   S      50             0.3070000    1.000000000000

     18   P      51            17.0220000    0.068979967443
     18   P      52             3.6838000    0.351985516325
     18   P      53             0.9923400    0.724036547822

     19   P      54             0.2448700    1.000000000000

     20   D      55             1.0000000    1.000000000000

 TOTAL NUMBER OF BASIS SET SHELLS             =   20
 NUMBER OF CARTESIAN GAUSSIAN BASIS FUNCTIONS =   49
 NOTE: THIS RUN WILL RESTRICT THE MO VARIATION SPACE TO SPHERICAL HARMONICS.
 THE NUMBER OF ORBITALS KEPT IN THE VARIATIONAL SPACE WILL BE PRINTED LATER.
 NUMBER OF ELECTRONS                          =   32
 CHARGE OF MOLECULE                           =    0
 SPIN MULTIPLICITY                            =    1
 NUMBER OF OCCUPIED ORBITALS (ALPHA)          =   16
 NUMBER OF OCCUPIED ORBITALS (BETA )          =   16
 TOTAL NUMBER OF ATOMS                        =    3
 THE NUCLEAR REPULSION ENERGY IS      139.5361937531

     LEBEDEV GRID-BASED DFT OPTIONS
     ------------------------------
     DFTTYP=PBE     
     NRAD  =      96     NLEB  =     302
     NRAD0 =      24     NLEB0 =     110
     SWOFF =    5.00E-03 (PURE SCF -> DFT)
     SWITCH=    3.00E-04 (COARSE -> TIGHT GRID)
     THRESH=    0.00E+00 GTHRE=    1.00E+00

 GRIMME'S EMPIRICAL DISPERSION CORRECTION= F

     $CONTRL OPTIONS
     ---------------
 SCFTYP=RHF          RUNTYP=ENERGY       EXETYP=RUN     
 MPLEVL=       0     CITYP =NONE         CCTYP =NONE         VBTYP =NONE    
 DFTTYP=PBE          TDDFT =NONE    
 MULT  =       1     ICHARG=       0     NZVAR =       0     COORD =ZMT     
 PP    =NONE         RELWFN=NONE         LOCAL =NONE         NUMGRD=       F
 ISPHER=       1     NOSYM =       0     MAXIT =      30     UNITS =ANGS    
 PLTORB=       F     MOLPLT=       F     AIMPAC=       F     FRIEND=        
 NPRINT=       7     IREST =       0     GEOM  =INPUT   
 NORMF =       0     NORMP =       0     ITOL  =      20     ICUT  =       9
 INTTYP=BEST         GRDTYP=BEST         QMTTOL= 1.0E-06

     $SYSTEM OPTIONS
     ---------------
  REPLICATED MEMORY=     1000000 WORDS (ON EVERY NODE).
 DISTRIBUTED MEMDDI=           0 MILLION WORDS IN AGGREGATE,
 MEMDDI DISTRIBUTED OVER   1 PROCESSORS IS           0 WORDS/PROCESSOR.
 TOTAL MEMORY REQUESTED ON EACH PROCESSOR=     1000000 WORDS.
 TIMLIM=      525600.00 MINUTES, OR     365.0 DAYS.
 PARALL= F  BALTYP=  DLB     KDIAG=    0  COREFL= F
 MXSEQ2=     300 MXSEQ3=     150

          ----------------
          PROPERTIES INPUT
          ----------------

     MOMENTS            FIELD           POTENTIAL          DENSITY
 IEMOM =       1   IEFLD =       0   IEPOT =       0   IEDEN =       0
 WHERE =COMASS     WHERE =NUCLEI     WHERE =NUCLEI     WHERE =NUCLEI  
 OUTPUT=BOTH       OUTPUT=BOTH       OUTPUT=BOTH       OUTPUT=BOTH    
 IEMINT=       0   IEFINT=       0                     IEDINT=       0
                                                       MORB  =       0
          EXTRAPOLATION IN EFFECT
          DIIS IN EFFECT
 ORBITAL PRINTING OPTION: NPREO=     1    49     2     1

     -------------------------------
     INTEGRAL TRANSFORMATION OPTIONS
     -------------------------------
     NWORD  =            0
     CUTOFF = 1.0E-09     MPTRAN =       0
     DIRTRF =       F     AOINTS =DUP     

          ----------------------
          INTEGRAL INPUT OPTIONS
          ----------------------
 NOPK  =       1 NORDER=       0 SCHWRZ=       F

   --- ENCODED Z MATRIX ---
 COORD  TYPE   I   J   K   L   M   N
    1      1    3   1
    2      1    2   1
    3      2    2   1   3

 THE DETERMINANT OF THE G MATRIX IS 10**(    -4)

 THE DETERMINANT OF THE G MATRIX IS 10**(    -4)
 * * * WARNING * * *
 YOUR B MATRIX HAS A SMALL DETERMINANT.
 THIS SUGGESTS YOU MAY HAVE BADLY CHOSEN COORDINATES.

     ------------------------------------------
     THE POINT GROUP IS CNV, NAXIS= 2, ORDER= 4
     ------------------------------------------

 -- VARIATIONAL SPACE WILL BE RESTRICTED TO PURE SPHERICAL HARMONICS ONLY --
 AFTER EXCLUDING CONTAMINANT COMBINATIONS FROM THE CARTESIAN GAUSSIAN BASIS
 SET, THE NUMBER OF SPHERICAL HARMONICS KEPT IN THE VARIATION SPACE IS   46

     DIMENSIONS OF THE SYMMETRY SUBSPACES ARE
 A1  =   19     A2  =    5     B1  =   14     B2  =    8

 ..... DONE SETTING UP THE RUN .....
 STEP CPU TIME =     0.00 TOTAL CPU TIME =        0.0 (    0.0 MIN)
 TOTAL WALL CLOCK TIME=        0.0 SECONDS, CPU UTILIZATION IS   0.00%

          ********************
          1 ELECTRON INTEGRALS
          ********************
 ...... END OF ONE-ELECTRON INTEGRALS ......
 STEP CPU TIME =     0.00 TOTAL CPU TIME =        0.0 (    0.0 MIN)
 TOTAL WALL CLOCK TIME=        0.0 SECONDS, CPU UTILIZATION IS   0.00%

          -------------
          GUESS OPTIONS
          -------------
          GUESS =HUCKEL            NORB  =       0          NORDER=       0
          MIX   =       F          PRTMO =       F          PUNMO =       F
          TOLZ  = 1.0E-08          TOLE  = 1.0E-05
          SYMDEN=       F          PURIFY=       F

 INITIAL GUESS ORBITALS GENERATED BY HUCKEL   ROUTINE.
 HUCKEL GUESS REQUIRES     21583 WORDS.

 STATISTICS FOR GENERATION OF SYMMETRY ORBITAL -Q- MATRIX
 NUMBER OF CARTESIAN ATOMIC ORBITALS=         49
 NUMBER OF SPHERICAL CONTAMINANTS DROPPED=     3
 NUMBER OF LINEARLY DEPENDENT MOS DROPPED=     0
 TOTAL NUMBER OF MOS IN VARIATION SPACE=      46

 SYMMETRIES FOR INITIAL GUESS ORBITALS FOLLOW.   BOTH SET(S).
    16 ORBITALS ARE OCCUPIED (    7 CORE ORBITALS).
     8=?A1      9=?B1     10=B2      11=?A1     12=A1      13=B1      14=A2  
    15=B1      16=A1      17=B2      18=A1      19=B1      20=A1      21=A1  
    22=A1      23=A1      24=A1      25=A1      26=A1  
 ...... END OF INITIAL ORBITAL SELECTION ......
 STEP CPU TIME =     0.01 TOTAL CPU TIME =        0.0 (    0.0 MIN)
 TOTAL WALL CLOCK TIME=        0.0 SECONDS, CPU UTILIZATION IS  50.00%

                    ----------------------
                    AO INTEGRAL TECHNOLOGY
                    ----------------------
     S,P,L SHELL ROTATED AXIS INTEGRALS, REPROGRAMMED BY
        KAZUYA ISHIMURA (IMS) AND JOSE SIERRA (SYNSTAR).
     S,P,D,L SHELL ROTATED AXIS INTEGRALS PROGRAMMED BY
        KAZUYA ISHIMURA (INSTITUTE FOR MOLECULAR SCIENCE).
     S,P,D,F,G SHELL TO TOTAL QUARTET ANGULAR MOMENTUM SUM 5,
        ERIC PROGRAM BY GRAHAM FLETCHER (ELORET AND NASA ADVANCED
        SUPERCOMPUTING DIVISION, AMES RESEARCH CENTER).
     S,P,D,F,G,L SHELL GENERAL RYS QUADRATURE PROGRAMMED BY
        MICHEL DUPUIS (PACIFIC NORTHWEST NATIONAL LABORATORY).

          --------------------
          2 ELECTRON INTEGRALS
          --------------------

 THE -PK- OPTION IS OFF, THE INTEGRALS ARE NOT IN SUPERMATRIX FORM.
 STORING   15000 INTEGRALS/RECORD ON DISK, USING 12 BYTES/INTEGRAL.
 TWO ELECTRON INTEGRAL EVALUATION REQUIRES   90606 WORDS OF MEMORY.
 II,JST,KST,LST =  1  1  1  1 NREC =         1 INTLOC =    1
 II,JST,KST,LST =  2  1  1  1 NREC =         1 INTLOC =    2
 II,JST,KST,LST =  3  1  1  1 NREC =         1 INTLOC =    7
 II,JST,KST,LST =  4  1  1  1 NREC =         1 INTLOC =   22
 II,JST,KST,LST =  5  1  1  1 NREC =         1 INTLOC =   56
 II,JST,KST,LST =  6  1  1  1 NREC =         1 INTLOC =  125
 II,JST,KST,LST =  7  1  1  1 NREC =         1 INTLOC =  329
 II,JST,KST,LST =  8  1  1  1 NREC =         1 INTLOC =  776
 II,JST,KST,LST =  9  1  1  1 NREC =         1 INTLOC = 2864
 II,JST,KST,LST = 10  1  1  1 NREC =         1 INTLOC = 2864
 II,JST,KST,LST = 11  1  1  1 NREC =         1 INTLOC = 2864
 II,JST,KST,LST = 12  1  1  1 NREC =         1 INTLOC = 2864
 II,JST,KST,LST = 13  1  1  1 NREC =         1 INTLOC = 2864
 II,JST,KST,LST = 14  1  1  1 NREC =         1 INTLOC = 2864
 II,JST,KST,LST = 15  1  1  1 NREC =         1 INTLOC = 2864
 II,JST,KST,LST = 16  1  1  1 NREC =         1 INTLOC = 5251
 II,JST,KST,LST = 17  1  1  1 NREC =         1 INTLOC = 8630
 II,JST,KST,LST = 18  1  1  1 NREC =         1 INTLOC =13137
 II,JST,KST,LST = 19  1  1  1 NREC =         3 INTLOC = 1706
 II,JST,KST,LST = 20  1  1  1 NREC =         5 INTLOC = 3298
 TOTAL NUMBER OF NONZERO TWO-ELECTRON INTEGRALS =              183429
         13 INTEGRAL RECORDS WERE STORED ON DISK FILE  8.
  ...... END OF TWO-ELECTRON INTEGRALS .....
 STEP CPU TIME =     0.18 TOTAL CPU TIME =        0.2 (    0.0 MIN)
 TOTAL WALL CLOCK TIME=        0.2 SECONDS, CPU UTILIZATION IS 100.00%

          --------------------------
               R-PBE SCF CALCULATION
          --------------------------

     NUCLEAR ENERGY =       139.5361937531
     MAXIT =   30     NPUNCH=    2
     EXTRAP=T  DAMP=F  SHIFT=F  RSTRCT=F  DIIS=T  DEM=F  SOSCF=F
         DENSITY MATRIX CONVERGENCE THRESHOLD=  1.00E-05
     COARSE -> FINE DFT GRID SWITCH THRESHOLD=  3.00E-04 (SWITCH IN $DFT)
                   HF -> DFT SWITCH THRESHOLD=  5.00E-03 (SWOFF IN $DFT)
     MEMORY REQUIRED FOR RHF ITERS=    183108 WORDS.

 DFT CODE IS SWITCHING FROM THE FINE GRID NRAD= 96,  NLEB=  302
                      TO THE COARSE GRID NRAD0= 24, NLEB0=  110

     EXCHANGE FUNCTIONAL   =PBE       
     CORRELATION FUNCTIONAL=PBE       
     DFT THRESHOLD         =.460E-07
     GRID CHANGE THRESHOLD =.300E-03
 FOR AN EULER-MACLAURIN QUADRATURE USING  96 RADIAL POINTS:
 SMALLEST GAUSSIAN PRIMITIVE EXPONENT=        0.1313100000 OF TYPE -P-
 ON ATOM NUMBER   1 HAS RADIAL NORMALIZATION=  1.000000
  LARGEST GAUSSIAN PRIMITIVE EXPONENT=    55510.0000000000 OF TYPE -S-
 ON ATOM NUMBER   1 HAS RADIAL NORMALIZATION=  0.999999
 DFT IS SWITCHED OFF, PERFORMING PURE SCF UNTIL SWOFF THRESHOLD IS REACHED.

 ITER EX DEM     TOTAL ENERGY        E CHANGE  DENSITY CHANGE    DIIS ERROR
   1  0  0     -544.9955663254  -544.9955663254   0.628733728   1.160404126
          * * *   INITIATING DIIS PROCEDURE   * * *
   2  1  0     -546.3352323787    -1.3396660533   1.021665747   0.166296782
   3  2  0     -546.4339774512    -0.0987450725   0.137007173   0.061951113
   4  3  0     -546.4483031852    -0.0143257340   0.183508317   0.024286760
   5  4  0     -546.4510947019    -0.0027915168   0.081486743   0.009167798
   6  5  0     -546.4514298172    -0.0003351153   0.016867073   0.001796146
   7  6  0     -546.4514497774    -0.0000199603   0.000853655   0.000153057
 CONVERGED TO SWOFF, SO DFT CALCULATION IS NOW SWITCHED ON.
          * * *   INITIATING DIIS PROCEDURE   * * *
   8  7  0     -547.5107656640    -1.0593158866   0.208615391   0.086117960
   9  8  0     -547.5265046484    -0.0157389844   0.058703332   0.031117557
  10  9  0     -547.5267423277    -0.0002376794   0.021548964   0.026577083
  11 10  0     -547.5286666844    -0.0019243567   0.006785945   0.005149268
  12 11  0     -547.5287115203    -0.0000448358   0.001701057   0.000453235
  13 12  0     -547.5287118386    -0.0000003184   0.000443039   0.000036080
  14 13  0     -547.5287118437    -0.0000000051   0.000064619   0.000008611
 DFT CODE IS SWITCHING BACK TO THE FINE GRID
          * * *   INITIATING DIIS PROCEDURE   * * *
  15 14  0     -547.4940430974     0.0346687464   0.013598658   0.011532125
  16 15  0     -547.4942787501    -0.0002356527   0.004634681   0.002475993
  17 16  0     -547.4942865847    -0.0000078346   0.004189942   0.001252847
  18 17  0     -547.4942904343    -0.0000038497   0.000547551   0.000312989
  19 18  0     -547.4942905667    -0.0000001324   0.000194673   0.000074280
  20 19  0     -547.4942905844    -0.0000000177   0.000036436   0.000003743
  21 20  0     -547.4942905844    -0.0000000001   0.000005782   0.000000530
  22 21  0     -547.4942905844     0.0000000000   0.000000857   0.000000147

          -----------------
          DENSITY CONVERGED
          -----------------
     TIME TO FORM FOCK OPERATORS=       4.5 SECONDS (       0.2 SEC/ITER)
     TIME TO SOLVE SCF EQUATIONS=       0.0 SECONDS (       0.0 SEC/ITER)

 FINAL R-PBE ENERGY IS     -547.4942905844 AFTER  22 ITERATIONS
 DFT EXCHANGE + CORRELATION ENERGY =       -43.3643794460
 TOTAL ELECTRON NUMBER             =        31.9999946777

          ------------
          EIGENVECTORS
          ------------

                      1          2          3          4          5
                  -88.1104   -18.7515   -18.7515    -7.7980    -5.8262
                     A1         B1         A1         A1         B1  
    1  S  1  S    1.002981   0.000000  -0.000101  -0.273531   0.000000
    2  S  1  S   -0.010065   0.000000   0.000253   1.038275   0.000000
    3  S  1  S    0.002236   0.000000  -0.001778   0.044746   0.000000
    4  S  1  S   -0.000100   0.000000   0.010764  -0.005529   0.000000
    5  S  1  X    0.000000  -0.000323   0.000000   0.000000   0.991781
    6  S  1  Y    0.000000   0.000000   0.000000   0.000000   0.000000
    7  S  1  Z    0.000051   0.000000  -0.000077   0.017471   0.000000
    8  S  1  X    0.000000   0.004422   0.000000   0.000000   0.014682
    9  S  1  Y    0.000000   0.000000   0.000000   0.000000   0.000000
   10  S  1  Z    0.000206   0.000000  -0.000069   0.002999   0.000000
   11  S  1  X    0.000000  -0.006774   0.000000   0.000000  -0.000152
   12  S  1  Y    0.000000   0.000000   0.000000   0.000000   0.000000
   13  S  1  Z    0.000036   0.000000   0.004018  -0.000072   0.000000
   14  S  1 XX    0.000438   0.000000  -0.004031   0.004134   0.000000
   15  S  1 YY   -0.000231   0.000000   0.001805  -0.002102   0.000000
   16  S  1 ZZ   -0.000206   0.000000   0.002226  -0.002032   0.000000
   17  S  1 XY    0.000000   0.000000   0.000000   0.000000   0.000000
   18  S  1 XZ    0.000000   0.003501   0.000000   0.000000   0.003812
   19  S  1 YZ    0.000000   0.000000   0.000000   0.000000   0.000000
   20  O  2  S   -0.000011   0.703155   0.703207  -0.002395   0.004643
   21  O  2  S   -0.000117   0.028260   0.028416   0.000994  -0.004796
   22  O  2  S   -0.000604  -0.012331  -0.013830  -0.004343   0.001355
   23  O  2  X   -0.000189   0.003019   0.002734   0.002515  -0.007031
   24  O  2  Y    0.000000   0.000000   0.000000   0.000000   0.000000
   25  O  2  Z    0.000100  -0.000676  -0.001038  -0.000640   0.003355
   26  O  2  X   -0.000350  -0.000550  -0.003462  -0.003153   0.001154
   27  O  2  Y    0.000000   0.000000   0.000000   0.000000   0.000000
   28  O  2  Z    0.000188   0.001667  -0.000741   0.001644   0.000150
   29  O  2 XX    0.000008   0.001009   0.000087   0.002488  -0.002879
   30  O  2 YY    0.000021  -0.000217  -0.000379  -0.001312   0.002126
   31  O  2 ZZ   -0.000029  -0.000792   0.000292  -0.001175   0.000753
   32  O  2 XY    0.000000   0.000000   0.000000   0.000000   0.000000
   33  O  2 XZ    0.000060  -0.000022  -0.000841  -0.001205   0.002870
   34  O  2 YZ    0.000000   0.000000   0.000000   0.000000   0.000000
   35  O  3  S   -0.000011  -0.703155   0.703207  -0.002395  -0.004643
   36  O  3  S   -0.000117  -0.028260   0.028416   0.000994   0.004796
   37  O  3  S   -0.000604   0.012331  -0.013830  -0.004343  -0.001355
   38  O  3  X    0.000189   0.003019  -0.002734  -0.002515  -0.007031
   39  O  3  Y    0.000000   0.000000   0.000000   0.000000   0.000000
   40  O  3  Z    0.000100   0.000676  -0.001038  -0.000640  -0.003355
   41  O  3  X    0.000350  -0.000550   0.003462   0.003153   0.001154
   42  O  3  Y    0.000000   0.000000   0.000000   0.000000   0.000000
   43  O  3  Z    0.000188  -0.001667  -0.000741   0.001644  -0.000150
   44  O  3 XX    0.000008  -0.001009   0.000087   0.002488   0.002879
   45  O  3 YY    0.000021   0.000217  -0.000379  -0.001312  -0.002126
   46  O  3 ZZ   -0.000029   0.000792   0.000292  -0.001175  -0.000753
   47  O  3 XY    0.000000   0.000000   0.000000   0.000000   0.000000
   48  O  3 XZ   -0.000060  -0.000022   0.000841   0.001205   0.002870
   49  O  3 YZ    0.000000   0.000000   0.000000   0.000000   0.000000

                      6          7          8          9         10
                   -5.8048    -5.8002    -1.2368    -1.1151    -0.5662
                     B2         A1         A1         B1         B2  
    1  S  1  S    0.000000   0.005493   0.065989   0.000000   0.000000
    2  S  1  S    0.000000  -0.020664  -0.227304   0.000000   0.000000
    3  S  1  S    0.000000   0.001343   0.307640   0.000000   0.000000
    4  S  1  S    0.000000   0.000073   0.065892   0.000000   0.000000
    5  S  1  X    0.000000   0.000000   0.000000  -0.244419   0.000000
    6  S  1  Y    0.995893   0.000000   0.000000   0.000000  -0.212885
    7  S  1  Z    0.000000   0.995351  -0.082321   0.000000   0.000000
    8  S  1  X    0.000000   0.000000   0.000000   0.354426   0.000000
    9  S  1  Y    0.011448   0.000000   0.000000   0.000000   0.447390
   10  S  1  Z    0.000000   0.011414   0.109457   0.000000   0.000000
   11  S  1  X    0.000000   0.000000   0.000000   0.001169   0.000000
   12  S  1  Y   -0.000885   0.000000   0.000000   0.000000   0.112528
   13  S  1  Z    0.000000  -0.000636  -0.014360   0.000000   0.000000
   14  S  1 XX    0.000000  -0.000552   0.078006   0.000000   0.000000
   15  S  1 YY    0.000000  -0.001061  -0.045804   0.000000   0.000000
   16  S  1 ZZ    0.000000   0.001613  -0.032202   0.000000   0.000000
   17  S  1 XY    0.000000   0.000000   0.000000   0.000000   0.000000
   18  S  1 XZ    0.000000   0.000000   0.000000   0.087285   0.000000
   19  S  1 YZ    0.001439   0.000000   0.000000   0.000000   0.063237
   20  O  2  S    0.000000  -0.001579  -0.132995   0.152254   0.000000
   21  O  2  S    0.000000   0.002097   0.236504  -0.276217   0.000000
   22  O  2  S    0.000000  -0.000275   0.217798  -0.244053   0.000000
   23  O  2  X    0.000000   0.003128   0.164572  -0.156194   0.000000
   24  O  2  Y    0.001244   0.000000   0.000000   0.000000   0.347560
   25  O  2  Z    0.000000   0.000095  -0.042466   0.060278   0.000000
   26  O  2  X    0.000000  -0.000570   0.039464  -0.012385   0.000000
   27  O  2  Y   -0.000288   0.000000   0.000000   0.000000   0.168671
   28  O  2  Z    0.000000  -0.000230  -0.000305   0.011227   0.000000
   29  O  2 XX    0.000000   0.001551   0.027513  -0.020376   0.000000
   30  O  2 YY    0.000000  -0.000502  -0.013038   0.014159   0.000000
   31  O  2 ZZ    0.000000  -0.001049  -0.014475   0.006217   0.000000
   32  O  2 XY    0.000961   0.000000   0.000000   0.000000   0.033761
   33  O  2 XZ    0.000000   0.000019  -0.011287   0.019022   0.000000
   34  O  2 YZ   -0.000480   0.000000   0.000000   0.000000  -0.011017
   35  O  3  S    0.000000  -0.001579  -0.132995  -0.152254   0.000000
   36  O  3  S    0.000000   0.002097   0.236504   0.276217   0.000000
   37  O  3  S    0.000000  -0.000275   0.217798   0.244053   0.000000
   38  O  3  X    0.000000  -0.003128  -0.164572  -0.156194   0.000000
   39  O  3  Y    0.001244   0.000000   0.000000   0.000000   0.347560
   40  O  3  Z    0.000000   0.000095  -0.042466  -0.060278   0.000000
   41  O  3  X    0.000000   0.000570  -0.039464  -0.012385   0.000000
   42  O  3  Y   -0.000288   0.000000   0.000000   0.000000   0.168671
   43  O  3  Z    0.000000  -0.000230  -0.000305  -0.011227   0.000000
   44  O  3 XX    0.000000   0.001551   0.027513   0.020376   0.000000
   45  O  3 YY    0.000000  -0.000502  -0.013038  -0.014159   0.000000
   46  O  3 ZZ    0.000000  -0.001049  -0.014475  -0.006217   0.000000
   47  O  3 XY   -0.000961   0.000000   0.000000   0.000000  -0.033761
   48  O  3 XZ    0.000000  -0.000019   0.011287   0.019022   0.000000
   49  O  3 YZ   -0.000480   0.000000   0.000000   0.000000  -0.011017

                     11         12         13         14         15
                   -0.5546    -0.4925    -0.4461    -0.4250    -0.3978
                     A1         A1         B1         A2         B1  
    1  S  1  S   -0.019031   0.043930   0.000000   0.000000   0.000000
    2  S  1  S    0.057889  -0.123728   0.000000   0.000000   0.000000
    3  S  1  S   -0.112764   0.269471   0.000000   0.000000   0.000000
    4  S  1  S   -0.124624   0.036810   0.000000   0.000000   0.000000
    5  S  1  X    0.000000   0.000000   0.167349   0.000000   0.026608
    6  S  1  Y    0.000000   0.000000   0.000000   0.000000   0.000000
    7  S  1  Z   -0.192103  -0.039084   0.000000   0.000000   0.000000
    8  S  1  X    0.000000   0.000000  -0.302616   0.000000  -0.032060
    9  S  1  Y    0.000000   0.000000   0.000000   0.000000   0.000000
   10  S  1  Z    0.403872   0.068861   0.000000   0.000000   0.000000
   11  S  1  X    0.000000   0.000000   0.056429   0.000000   0.058898
   12  S  1  Y    0.000000   0.000000   0.000000   0.000000   0.000000
   13  S  1  Z    0.106910  -0.036718   0.000000   0.000000   0.000000
   14  S  1 XX   -0.100194  -0.030212   0.000000   0.000000   0.000000
   15  S  1 YY   -0.004743   0.011325   0.000000   0.000000   0.000000
   16  S  1 ZZ    0.104937   0.018886   0.000000   0.000000   0.000000
   17  S  1 XY    0.000000   0.000000   0.000000  -0.205018   0.000000
   18  S  1 XZ    0.000000   0.000000   0.016492   0.000000  -0.189423
   19  S  1 YZ    0.000000   0.000000   0.000000   0.000000   0.000000
   20  O  2  S   -0.003483   0.093476   0.061079   0.000000   0.008606
   21  O  2  S    0.019187  -0.189060  -0.124674   0.000000  -0.039065
   22  O  2  S    0.032909  -0.331445  -0.261799   0.000000  -0.053859
   23  O  2  X    0.095930   0.343900   0.314327   0.000000   0.316708
   24  O  2  Y    0.000000   0.000000   0.000000   0.457604   0.000000
   25  O  2  Z    0.333338  -0.065055  -0.289832   0.000000   0.347124
   26  O  2  X    0.048335   0.188441   0.137768   0.000000   0.175250
   27  O  2  Y    0.000000   0.000000   0.000000   0.267079   0.000000
   28  O  2  Z    0.155446  -0.031492  -0.162362   0.000000   0.210282
   29  O  2 XX    0.011884   0.021757   0.016031   0.000000   0.031914
   30  O  2 YY    0.001001  -0.012404  -0.014220   0.000000  -0.011240
   31  O  2 ZZ   -0.012884  -0.009353  -0.001810   0.000000  -0.020674
   32  O  2 XY    0.000000   0.000000   0.000000   0.027364   0.000000
   33  O  2 XZ    0.024826  -0.009183  -0.026384   0.000000   0.015197
   34  O  2 YZ    0.000000   0.000000   0.000000  -0.006033   0.000000
   35  O  3  S   -0.003483   0.093476  -0.061079   0.000000  -0.008606
   36  O  3  S    0.019187  -0.189060   0.124674   0.000000   0.039065
   37  O  3  S    0.032909  -0.331445   0.261799   0.000000   0.053859
   38  O  3  X   -0.095930  -0.343900   0.314327   0.000000   0.316708
   39  O  3  Y    0.000000   0.000000   0.000000  -0.457604   0.000000
   40  O  3  Z    0.333338  -0.065055   0.289832   0.000000  -0.347124
   41  O  3  X   -0.048335  -0.188441   0.137768   0.000000   0.175250
   42  O  3  Y    0.000000   0.000000   0.000000  -0.267079   0.000000
   43  O  3  Z    0.155446  -0.031492   0.162362   0.000000  -0.210282
   44  O  3 XX    0.011884   0.021757  -0.016031   0.000000  -0.031914
   45  O  3 YY    0.001001  -0.012404   0.014220   0.000000   0.011240
   46  O  3 ZZ   -0.012884  -0.009353   0.001810   0.000000   0.020674
   47  O  3 XY    0.000000   0.000000   0.000000   0.027364   0.000000
   48  O  3 XZ   -0.024826   0.009183  -0.026384   0.000000   0.015197
   49  O  3 YZ    0.000000   0.000000   0.000000   0.006033   0.000000

                     16         17         18         19         20
                   -0.1949     0.0003     0.1112     0.2197     0.3435
                     A1         B2         A1         B1         B2  
    1  S  1  S    0.023492   0.000000  -0.000830   0.000000   0.000000
    2  S  1  S   -0.108403   0.000000  -0.083792   0.000000   0.000000
    3  S  1  S    0.116529   0.000000  -0.101228   0.000000   0.000000
    4  S  1  S    1.128732   0.000000   1.591624   0.000000   0.000000
    5  S  1  X    0.000000   0.000000   0.000000  -0.022407   0.000000
    6  S  1  Y    0.000000  -0.180128   0.000000   0.000000  -0.306061
    7  S  1  Z    0.142304   0.000000  -0.087614   0.000000   0.000000
    8  S  1  X    0.000000   0.000000   0.000000   0.160244   0.000000
    9  S  1  Y    0.000000   0.494751   0.000000   0.000000   1.144207
   10  S  1  Z   -0.299295   0.000000   0.292929   0.000000   0.000000
   11  S  1  X    0.000000   0.000000   0.000000   2.040313   0.000000
   12  S  1  Y    0.000000   0.924717   0.000000   0.000000  -1.084734
   13  S  1  Z   -0.181480   0.000000   1.242884   0.000000   0.000000
   14  S  1 XX   -0.229379   0.000000  -0.082139   0.000000   0.000000
   15  S  1 YY    0.115379   0.000000   0.195799   0.000000   0.000000
   16  S  1 ZZ    0.113999   0.000000  -0.113660   0.000000   0.000000
   17  S  1 XY    0.000000   0.000000   0.000000   0.000000   0.000000
   18  S  1 XZ    0.000000   0.000000   0.000000  -0.054713   0.000000
   19  S  1 YZ    0.000000  -0.113897   0.000000   0.000000   0.056263
   20  O  2  S    0.049850   0.000000   0.060680  -0.072421   0.000000
   21  O  2  S   -0.072880   0.000000  -0.090998   0.086977   0.000000
   22  O  2  S   -0.319273   0.000000  -0.826222   1.223771   0.000000
   23  O  2  X   -0.155262   0.000000  -0.170328  -0.080970   0.000000
   24  O  2  Y    0.000000  -0.373228   0.000000   0.000000  -0.037661
   25  O  2  Z    0.267828   0.000000  -0.219034  -0.131699   0.000000
   26  O  2  X   -0.128627   0.000000  -0.357638   0.030848   0.000000
   27  O  2  Y    0.000000  -0.464979   0.000000   0.000000  -0.051727
   28  O  2  Z    0.229218   0.000000  -0.298272  -0.254231   0.000000
   29  O  2 XX   -0.029755   0.000000  -0.027503   0.021651   0.000000
   30  O  2 YY    0.016915   0.000000   0.023653  -0.011965   0.000000
   31  O  2 ZZ    0.012840   0.000000   0.003850  -0.009687   0.000000
   32  O  2 XY    0.000000  -0.008668   0.000000   0.000000   0.040840
   33  O  2 XZ    0.020632   0.000000   0.011775  -0.019005   0.000000
   34  O  2 YZ    0.000000  -0.002477   0.000000   0.000000  -0.012775
   35  O  3  S    0.049850   0.000000   0.060680   0.072421   0.000000
   36  O  3  S   -0.072880   0.000000  -0.090998  -0.086977   0.000000
   37  O  3  S   -0.319273   0.000000  -0.826222  -1.223771   0.000000
   38  O  3  X    0.155262   0.000000   0.170328  -0.080970   0.000000
   39  O  3  Y    0.000000  -0.373228   0.000000   0.000000  -0.037661
   40  O  3  Z    0.267828   0.000000  -0.219034   0.131699   0.000000
   41  O  3  X    0.128627   0.000000   0.357638   0.030848   0.000000
   42  O  3  Y    0.000000  -0.464979   0.000000   0.000000  -0.051727
   43  O  3  Z    0.229218   0.000000  -0.298272   0.254231   0.000000
   44  O  3 XX   -0.029755   0.000000  -0.027503  -0.021651   0.000000
   45  O  3 YY    0.016915   0.000000   0.023653   0.011965   0.000000
   46  O  3 ZZ    0.012840   0.000000   0.003850   0.009687   0.000000
   47  O  3 XY    0.000000   0.008668   0.000000   0.000000  -0.040840
   48  O  3 XZ   -0.020632   0.000000  -0.011775  -0.019005   0.000000
   49  O  3 YZ    0.000000  -0.002477   0.000000   0.000000  -0.012775

                     21         22         23         24         25
                    0.3804     0.4503     0.5649     0.5698     0.5969
                     A1         A1         B2         B1         A1  
    1  S  1  S   -0.026342  -0.044560   0.000000   0.000000  -0.004727
    2  S  1  S   -0.089105   0.048260   0.000000   0.000000  -0.137301
    3  S  1  S   -0.394018  -0.419001   0.000000   0.000000  -0.218154
    4  S  1  S    0.364659   2.798906   0.000000   0.000000  -0.358346
    5  S  1  X    0.000000   0.000000   0.000000  -0.018042   0.000000
    6  S  1  Y    0.000000   0.000000  -0.004337   0.000000   0.000000
    7  S  1  Z   -0.297920  -0.035861   0.000000   0.000000  -0.020604
    8  S  1  X    0.000000   0.000000   0.000000   0.512511   0.000000
    9  S  1  Y    0.000000   0.000000   0.009132   0.000000   0.000000
   10  S  1  Z    1.115030   0.285304   0.000000   0.000000   0.022147
   11  S  1  X    0.000000   0.000000   0.000000   0.218654   0.000000
   12  S  1  Y    0.000000   0.000000   0.285360   0.000000   0.000000
   13  S  1  Z   -0.903452   0.104196   0.000000   0.000000   0.297560
   14  S  1 XX   -0.240895   0.628080   0.000000   0.000000  -0.244546
   15  S  1 YY    0.185416  -0.573981   0.000000   0.000000  -0.664659
   16  S  1 ZZ    0.055479  -0.054099   0.000000   0.000000   0.909205
   17  S  1 XY    0.000000   0.000000   0.000000   0.000000   0.000000
   18  S  1 XZ    0.000000   0.000000   0.000000   0.623502   0.000000
   19  S  1 YZ    0.000000   0.000000   0.979858   0.000000   0.000000
   20  O  2  S    0.009962   0.022616   0.000000  -0.020761   0.000591
   21  O  2  S   -0.046714   0.007140   0.000000  -0.050586  -0.089341
   22  O  2  S    0.107289  -1.321647   0.000000   0.876303   0.282831
   23  O  2  X   -0.081456   0.281764   0.000000  -0.249738  -0.227800
   24  O  2  Y    0.000000   0.000000  -0.226052   0.000000   0.000000
   25  O  2  Z   -0.034441  -0.102046   0.000000   0.224621  -0.183964
   26  O  2  X   -0.039656  -0.800768   0.000000   1.138105   0.289040
   27  O  2  Y    0.000000   0.000000  -0.126529   0.000000   0.000000
   28  O  2  Z   -0.140021   0.425780   0.000000  -0.141209  -0.316456
   29  O  2 XX    0.016515  -0.029619   0.000000   0.013133   0.014628
   30  O  2 YY    0.007829   0.009954   0.000000  -0.014741  -0.058004
   31  O  2 ZZ   -0.024344   0.019665   0.000000   0.001608   0.043376
   32  O  2 XY    0.000000   0.000000   0.023444   0.000000   0.000000
   33  O  2 XZ    0.031717   0.040947   0.000000  -0.016387   0.031027
   34  O  2 YZ    0.000000   0.000000   0.064425   0.000000   0.000000
   35  O  3  S    0.009962   0.022616   0.000000   0.020761   0.000591
   36  O  3  S   -0.046714   0.007140   0.000000   0.050586  -0.089341
   37  O  3  S    0.107289  -1.321647   0.000000  -0.876303   0.282831
   38  O  3  X    0.081456  -0.281764   0.000000  -0.249738   0.227800
   39  O  3  Y    0.000000   0.000000  -0.226052   0.000000   0.000000
   40  O  3  Z   -0.034441  -0.102046   0.000000  -0.224621  -0.183964
   41  O  3  X    0.039656   0.800768   0.000000   1.138105  -0.289040
   42  O  3  Y    0.000000   0.000000  -0.126529   0.000000   0.000000
   43  O  3  Z   -0.140021   0.425780   0.000000   0.141209  -0.316456
   44  O  3 XX    0.016515  -0.029619   0.000000  -0.013133   0.014628
   45  O  3 YY    0.007829   0.009954   0.000000   0.014741  -0.058004
   46  O  3 ZZ   -0.024344   0.019665   0.000000  -0.001608   0.043376
   47  O  3 XY    0.000000   0.000000  -0.023444   0.000000   0.000000
   48  O  3 XZ   -0.031717  -0.040947   0.000000  -0.016387  -0.031027
   49  O  3 YZ    0.000000   0.000000   0.064425   0.000000   0.000000

                     26         27         28         29         30
                    0.6466     0.6540     0.6626     0.8449     0.8765
                     A1         A2         B1         A1         B2  
    1  S  1  S    0.104338   0.000000   0.000000  -0.049962   0.000000
    2  S  1  S    0.524918   0.000000   0.000000  -0.251059   0.000000
    3  S  1  S    1.801148   0.000000   0.000000  -0.869683   0.000000
    4  S  1  S   -0.169816   0.000000   0.000000   0.401447   0.000000
    5  S  1  X    0.000000   0.000000   0.170970   0.000000   0.000000
    6  S  1  Y    0.000000   0.000000   0.000000   0.000000   0.041736
    7  S  1  Z   -0.057293   0.000000   0.000000   0.076309   0.000000
    8  S  1  X    0.000000   0.000000  -0.876618   0.000000   0.000000
    9  S  1  Y    0.000000   0.000000   0.000000   0.000000  -0.055969
   10  S  1  Z    0.372222   0.000000   0.000000  -0.243552   0.000000
   11  S  1  X    0.000000   0.000000   0.189302   0.000000   0.000000
   12  S  1  Y    0.000000   0.000000   0.000000   0.000000   1.206441
   13  S  1  Z    0.322206   0.000000   0.000000   1.117354   0.000000
   14  S  1 XX   -0.217906   0.000000   0.000000  -0.083993   0.000000
   15  S  1 YY   -0.057073   0.000000   0.000000  -0.086951   0.000000
   16  S  1 ZZ    0.274978   0.000000   0.000000   0.170944   0.000000
   17  S  1 XY    0.000000   0.696056   0.000000   0.000000   0.000000
   18  S  1 XZ    0.000000   0.000000   0.592487   0.000000   0.000000
   19  S  1 YZ    0.000000   0.000000   0.000000   0.000000   0.203227
   20  O  2  S    0.054046   0.000000   0.039424  -0.006832   0.000000
   21  O  2  S   -0.075667   0.000000  -0.062251   0.014788   0.000000
   22  O  2  S   -0.489290   0.000000  -0.227483   0.015349   0.000000
   23  O  2  X    0.149323   0.000000   0.005195   0.278637   0.000000
   24  O  2  Y    0.000000  -0.339251   0.000000   0.000000   0.607920
   25  O  2  Z    0.074219   0.000000  -0.248075   0.519934   0.000000
   26  O  2  X   -1.029833   0.000000  -0.351661  -0.011533   0.000000
   27  O  2  Y    0.000000   0.917389   0.000000   0.000000  -1.195781
   28  O  2  Z   -0.063478   0.000000   0.885096  -1.100433   0.000000
   29  O  2 XX    0.014683   0.000000  -0.022185  -0.022656   0.000000
   30  O  2 YY   -0.008669   0.000000  -0.007163   0.015184   0.000000
   31  O  2 ZZ   -0.006014   0.000000   0.029347   0.007472   0.000000
   32  O  2 XY    0.000000  -0.019430   0.000000   0.000000   0.036312
   33  O  2 XZ    0.006504   0.000000  -0.028085   0.010071   0.000000
   34  O  2 YZ    0.000000   0.013653   0.000000   0.000000  -0.011802
   35  O  3  S    0.054046   0.000000  -0.039424  -0.006832   0.000000
   36  O  3  S   -0.075667   0.000000   0.062251   0.014788   0.000000
   37  O  3  S   -0.489290   0.000000   0.227483   0.015349   0.000000
   38  O  3  X   -0.149323   0.000000   0.005195  -0.278637   0.000000
   39  O  3  Y    0.000000   0.339251   0.000000   0.000000   0.607920
   40  O  3  Z    0.074219   0.000000   0.248075   0.519934   0.000000
   41  O  3  X    1.029833   0.000000  -0.351661   0.011533   0.000000
   42  O  3  Y    0.000000  -0.917389   0.000000   0.000000  -1.195781
   43  O  3  Z   -0.063478   0.000000  -0.885096  -1.100433   0.000000
   44  O  3 XX    0.014683   0.000000   0.022185  -0.022656   0.000000
   45  O  3 YY   -0.008669   0.000000   0.007163   0.015184   0.000000
   46  O  3 ZZ   -0.006014   0.000000  -0.029347   0.007472   0.000000
   47  O  3 XY    0.000000  -0.019430   0.000000   0.000000  -0.036312
   48  O  3 XZ   -0.006504   0.000000  -0.028085  -0.010071   0.000000
   49  O  3 YZ    0.000000  -0.013653   0.000000   0.000000  -0.011802

                     31         32         33         34         35
                    0.8831     0.8912     1.6695     1.6718     1.8159
                     B1         A2         B1         A1         B1  
    1  S  1  S    0.000000   0.000000   0.000000   0.038073   0.000000
    2  S  1  S    0.000000   0.000000   0.000000   0.122469   0.000000
    3  S  1  S    0.000000   0.000000   0.000000   0.586493   0.000000
    4  S  1  S    0.000000   0.000000   0.000000   2.883605   0.000000
    5  S  1  X   -0.194659   0.000000  -0.197836   0.000000  -0.220300
    6  S  1  Y    0.000000   0.000000   0.000000   0.000000   0.000000
    7  S  1  Z    0.000000   0.000000   0.000000  -0.083460   0.000000
    8  S  1  X    0.951103   0.000000   1.124175   0.000000   0.778229
    9  S  1  Y    0.000000   0.000000   0.000000   0.000000   0.000000
   10  S  1  Z    0.000000   0.000000   0.000000   0.517794   0.000000
   11  S  1  X   -0.863064   0.000000   1.557650   0.000000  -0.614143
   12  S  1  Y    0.000000   0.000000   0.000000   0.000000   0.000000
   13  S  1  Z    0.000000   0.000000   0.000000   0.800953   0.000000
   14  S  1 XX    0.000000   0.000000   0.000000   0.669907   0.000000
   15  S  1 YY    0.000000   0.000000   0.000000  -0.439817   0.000000
   16  S  1 ZZ    0.000000   0.000000   0.000000  -0.230091   0.000000
   17  S  1 XY    0.000000   0.872576   0.000000   0.000000   0.000000
   18  S  1 XZ   -0.334200   0.000000   0.465060   0.000000   0.415927
   19  S  1 YZ    0.000000   0.000000   0.000000   0.000000   0.000000
   20  O  2  S   -0.019296   0.000000  -0.014443   0.010630  -0.010323
   21  O  2  S    0.005307   0.000000  -0.835580   0.909037   0.968143
   22  O  2  S    0.078780   0.000000   2.521360  -2.787554  -0.875188
   23  O  2  X   -0.123516   0.000000   0.511574  -0.375316   0.396825
   24  O  2  Y    0.000000   0.598587   0.000000   0.000000   0.000000
   25  O  2  Z   -0.581590   0.000000  -0.025226   0.275121  -0.057385
   26  O  2  X    0.781268   0.000000   0.156087  -0.691520  -0.136862
   27  O  2  Y    0.000000  -0.148753   0.000000   0.000000   0.000000
   28  O  2  Z    0.384103   0.000000  -0.342918  -0.064942   0.118804
   29  O  2 XX   -0.023747   0.000000  -0.158006   0.202620  -0.147169
   30  O  2 YY    0.043018   0.000000   0.046694  -0.136333  -0.246573
   31  O  2 ZZ   -0.019271   0.000000   0.111313  -0.066287   0.393742
   32  O  2 XY    0.000000  -0.042570   0.000000   0.000000   0.000000
   33  O  2 XZ    0.012053   0.000000   0.164064  -0.073810   0.006561
   34  O  2 YZ    0.000000   0.065966   0.000000   0.000000   0.000000
   35  O  3  S    0.019296   0.000000   0.014443   0.010630   0.010323
   36  O  3  S   -0.005307   0.000000   0.835580   0.909037  -0.968143
   37  O  3  S   -0.078780   0.000000  -2.521360  -2.787554   0.875188
   38  O  3  X   -0.123516   0.000000   0.511574   0.375316   0.396825
   39  O  3  Y    0.000000  -0.598587   0.000000   0.000000   0.000000
   40  O  3  Z    0.581590   0.000000   0.025226   0.275121   0.057385
   41  O  3  X    0.781268   0.000000   0.156087   0.691520  -0.136862
   42  O  3  Y    0.000000   0.148753   0.000000   0.000000   0.000000
   43  O  3  Z   -0.384103   0.000000   0.342918  -0.064942  -0.118804
   44  O  3 XX    0.023747   0.000000   0.158006   0.202620   0.147169
   45  O  3 YY   -0.043018   0.000000  -0.046694  -0.136333   0.246573
   46  O  3 ZZ    0.019271   0.000000  -0.111313  -0.066287  -0.393742
   47  O  3 XY    0.000000  -0.042570   0.000000   0.000000   0.000000
   48  O  3 XZ    0.012053   0.000000   0.164064   0.073810   0.006561
   49  O  3 YZ    0.000000  -0.065966   0.000000   0.000000   0.000000

                     36         37         38         39         40
                    1.8802     1.9679     2.0137     2.0920     2.2049
                     A1         A2         B1         B2         A1  
    1  S  1  S   -0.034182   0.000000   0.000000   0.000000  -0.013283
    2  S  1  S    0.109249   0.000000   0.000000   0.000000   0.124092
    3  S  1  S   -0.285283   0.000000   0.000000   0.000000  -0.007125
    4  S  1  S    0.307393   0.000000   0.000000   0.000000  -0.003415
    5  S  1  X    0.000000   0.000000  -0.107273   0.000000   0.000000
    6  S  1  Y    0.000000   0.000000   0.000000  -0.035654   0.000000
    7  S  1  Z    0.104269   0.000000   0.000000   0.000000   0.053096
    8  S  1  X    0.000000   0.000000   0.332921   0.000000   0.000000
    9  S  1  Y    0.000000   0.000000   0.000000   0.245404   0.000000
   10  S  1  Z   -0.492051   0.000000   0.000000   0.000000  -0.206472
   11  S  1  X    0.000000   0.000000  -0.012740   0.000000   0.000000
   12  S  1  Y    0.000000   0.000000   0.000000  -0.007756   0.000000
   13  S  1  Z    0.219971   0.000000   0.000000   0.000000   0.000590
   14  S  1 XX   -0.806263   0.000000   0.000000   0.000000  -0.465041
   15  S  1 YY    0.390428   0.000000   0.000000   0.000000   0.566338
   16  S  1 ZZ    0.415836   0.000000   0.000000   0.000000  -0.101297
   17  S  1 XY    0.000000   0.063658   0.000000   0.000000   0.000000
   18  S  1 XZ    0.000000   0.000000   0.092329   0.000000   0.000000
   19  S  1 YZ    0.000000   0.000000   0.000000  -0.225565   0.000000
   20  O  2  S    0.001825   0.000000  -0.005972   0.000000   0.005214
   21  O  2  S    0.861485   0.000000   0.300120   0.000000   0.442603
   22  O  2  S   -0.498778   0.000000  -0.163188   0.000000  -0.187125
   23  O  2  X    0.374439   0.000000   0.209421   0.000000   0.227010
   24  O  2  Y    0.000000  -0.028981   0.000000   0.048826   0.000000
   25  O  2  Z   -0.277754   0.000000   0.021609   0.000000  -0.119093
   26  O  2  X   -0.221780   0.000000  -0.169583   0.000000  -0.146101
   27  O  2  Y    0.000000   0.063293   0.000000  -0.082448   0.000000
   28  O  2  Z    0.062734   0.000000  -0.070244   0.000000   0.086444
   29  O  2 XX    0.072770   0.000000  -0.340391   0.000000   0.033456
   30  O  2 YY    0.286433   0.000000   0.563295   0.000000  -0.519934
   31  O  2 ZZ   -0.359203   0.000000  -0.222904   0.000000   0.486478
   32  O  2 XY    0.000000   0.421545   0.000000  -0.037209   0.000000
   33  O  2 XZ    0.168028   0.000000  -0.378966   0.000000   0.351586
   34  O  2 YZ    0.000000   0.571603   0.000000   0.722368   0.000000
   35  O  3  S    0.001825   0.000000   0.005972   0.000000   0.005214
   36  O  3  S    0.861485   0.000000  -0.300120   0.000000   0.442603
   37  O  3  S   -0.498778   0.000000   0.163188   0.000000  -0.187125
   38  O  3  X   -0.374439   0.000000   0.209421   0.000000  -0.227010
   39  O  3  Y    0.000000   0.028981   0.000000   0.048826   0.000000
   40  O  3  Z   -0.277754   0.000000  -0.021609   0.000000  -0.119093
   41  O  3  X    0.221780   0.000000  -0.169583   0.000000   0.146101
   42  O  3  Y    0.000000  -0.063293   0.000000  -0.082448   0.000000
   43  O  3  Z    0.062734   0.000000   0.070244   0.000000   0.086444
   44  O  3 XX    0.072770   0.000000   0.340391   0.000000   0.033456
   45  O  3 YY    0.286433   0.000000  -0.563295   0.000000  -0.519934
   46  O  3 ZZ   -0.359203   0.000000   0.222904   0.000000   0.486478
   47  O  3 XY    0.000000   0.421545   0.000000   0.037209   0.000000
   48  O  3 XZ   -0.168028   0.000000  -0.378966   0.000000  -0.351586
   49  O  3 YZ    0.000000  -0.571603   0.000000   0.722368   0.000000

                     41         42         43         44         45
                    2.4964     2.6734     2.7702     2.7759     2.9156
                     B2         B1         A1         A2         B1  
    1  S  1  S    0.000000   0.000000  -0.087305   0.000000   0.000000
    2  S  1  S    0.000000   0.000000  -0.947310   0.000000   0.000000
    3  S  1  S    0.000000   0.000000  -2.334889   0.000000   0.000000
    4  S  1  S    0.000000   0.000000  -1.798732   0.000000   0.000000
    5  S  1  X    0.000000   0.042669   0.000000   0.000000  -0.172168
    6  S  1  Y    0.102715   0.000000   0.000000   0.000000   0.000000
    7  S  1  Z    0.000000   0.000000   0.062151   0.000000   0.000000
    8  S  1  X    0.000000   0.689247   0.000000   0.000000   2.613149
    9  S  1  Y   -0.700672   0.000000   0.000000   0.000000   0.000000
   10  S  1  Z    0.000000   0.000000  -1.057063   0.000000   0.000000
   11  S  1  X    0.000000   0.300689   0.000000   0.000000   0.254922
   12  S  1  Y   -0.204731   0.000000   0.000000   0.000000   0.000000
   13  S  1  Z    0.000000   0.000000  -0.269736   0.000000   0.000000
   14  S  1 XX    0.000000   0.000000  -0.670750   0.000000   0.000000
   15  S  1 YY    0.000000   0.000000   0.510523   0.000000   0.000000
   16  S  1 ZZ    0.000000   0.000000   0.160227   0.000000   0.000000
   17  S  1 XY    0.000000   0.000000   0.000000   1.149061   0.000000
   18  S  1 XZ    0.000000  -0.874774   0.000000   0.000000   1.123938
   19  S  1 YZ   -0.444236   0.000000   0.000000   0.000000   0.000000
   20  O  2  S    0.000000  -0.029933  -0.037669   0.000000  -0.024736
   21  O  2  S    0.000000  -0.682564  -0.447834   0.000000   0.071182
   22  O  2  S    0.000000   1.102034   2.445802   0.000000   1.944216
   23  O  2  X    0.000000  -0.126546   0.408051   0.000000   0.646707
   24  O  2  Y   -0.024640   0.000000   0.000000   0.169748   0.000000
   25  O  2  Z    0.000000  -0.048832  -0.169969   0.000000  -0.132362
   26  O  2  X    0.000000   0.391469   1.126386   0.000000   1.015171
   27  O  2  Y    0.389772   0.000000   0.000000   0.407925   0.000000
   28  O  2  Z    0.000000  -0.509944  -0.287384   0.000000  -0.177069
   29  O  2 XX    0.000000  -0.058474   0.861418   0.000000   0.870078
   30  O  2 YY    0.000000  -0.355246  -0.512907   0.000000  -0.319869
   31  O  2 ZZ    0.000000   0.413720  -0.348511   0.000000  -0.550209
   32  O  2 XY    0.827865   0.000000   0.000000   0.784368   0.000000
   33  O  2 XZ    0.000000  -0.707907  -0.334208   0.000000  -0.282316
   34  O  2 YZ    0.012813   0.000000   0.000000  -0.505840   0.000000
   35  O  3  S    0.000000   0.029933  -0.037669   0.000000   0.024736
   36  O  3  S    0.000000   0.682564  -0.447834   0.000000  -0.071182
   37  O  3  S    0.000000  -1.102034   2.445802   0.000000  -1.944216
   38  O  3  X    0.000000  -0.126546  -0.408051   0.000000   0.646707
   39  O  3  Y   -0.024640   0.000000   0.000000  -0.169748   0.000000
   40  O  3  Z    0.000000   0.048832  -0.169969   0.000000   0.132362
   41  O  3  X    0.000000   0.391469  -1.126386   0.000000   1.015171
   42  O  3  Y    0.389772   0.000000   0.000000  -0.407925   0.000000
   43  O  3  Z    0.000000   0.509944  -0.287384   0.000000   0.177069
   44  O  3 XX    0.000000   0.058474   0.861418   0.000000  -0.870078
   45  O  3 YY    0.000000   0.355246  -0.512907   0.000000   0.319869
   46  O  3 ZZ    0.000000  -0.413720  -0.348511   0.000000   0.550209
   47  O  3 XY   -0.827865   0.000000   0.000000   0.784368   0.000000
   48  O  3 XZ    0.000000  -0.707907   0.334208   0.000000  -0.282316
   49  O  3 YZ    0.012813   0.000000   0.000000   0.505840   0.000000

                     46
                    3.0330
                     A1  
    1  S  1  S    0.048147
    2  S  1  S    0.196744
    3  S  1  S    0.875230
    4  S  1  S    0.330181
    5  S  1  X    0.000000
    6  S  1  Y    0.000000
    7  S  1  Z    0.053722
    8  S  1  X    0.000000
    9  S  1  Y    0.000000
   10  S  1  Z   -0.298327
   11  S  1  X    0.000000
   12  S  1  Y    0.000000
   13  S  1  Z   -0.337763
   14  S  1 XX    1.514430
   15  S  1 YY   -0.494959
   16  S  1 ZZ   -1.019471
   17  S  1 XY    0.000000
   18  S  1 XZ    0.000000
   19  S  1 YZ    0.000000
   20  O  2  S   -0.021682
   21  O  2  S   -0.605252
   22  O  2  S   -0.314332
   23  O  2  X   -0.394943
   24  O  2  Y    0.000000
   25  O  2  Z    0.307753
   26  O  2  X    0.018202
   27  O  2  Y    0.000000
   28  O  2  Z    0.541113
   29  O  2 XX    0.287674
   30  O  2 YY    0.086091
   31  O  2 ZZ   -0.373765
   32  O  2 XY    0.000000
   33  O  2 XZ    0.791306
   34  O  2 YZ    0.000000
   35  O  3  S   -0.021682
   36  O  3  S   -0.605252
   37  O  3  S   -0.314332
   38  O  3  X    0.394943
   39  O  3  Y    0.000000
   40  O  3  Z    0.307753
   41  O  3  X   -0.018202
   42  O  3  Y    0.000000
   43  O  3  Z    0.541113
   44  O  3 XX    0.287674
   45  O  3 YY    0.086091
   46  O  3 ZZ   -0.373765
   47  O  3 XY    0.000000
   48  O  3 XZ   -0.791306
   49  O  3 YZ    0.000000
 ...... END OF RHF CALCULATION ......
 STEP CPU TIME =     4.58 TOTAL CPU TIME =        4.8 (    0.1 MIN)
 TOTAL WALL CLOCK TIME=        4.8 SECONDS, CPU UTILIZATION IS  99.79%

     ---------------------------------------------------------------------
     PROPERTIES FOR THE PBE      DFT FUNCTIONAL (RHF  TYPE) DENSITY MATRIX
     ---------------------------------------------------------------------

          -----------------
          ENERGY COMPONENTS
          -----------------

         WAVEFUNCTION NORMALIZATION =       1.0000000000

                ONE ELECTRON ENERGY =   -1030.7611874060
                TWO ELECTRON ENERGY =     343.7307030685
           NUCLEAR REPULSION ENERGY =     139.5361937531
                                      ------------------
                       TOTAL ENERGY =    -547.4942905844

 ELECTRON-ELECTRON POTENTIAL ENERGY =     343.7307030685
  NUCLEUS-ELECTRON POTENTIAL ENERGY =   -1583.7814692824
   NUCLEUS-NUCLEUS POTENTIAL ENERGY =     139.5361937531
                                      ------------------
             TOTAL POTENTIAL ENERGY =   -1100.5145724608
               TOTAL KINETIC ENERGY =     553.0202818764
                 VIRIAL RATIO (V/T) =       1.9900076155

          ---------------------------------------
          MULLIKEN AND LOWDIN POPULATION ANALYSES
          ---------------------------------------

     ATOMIC MULLIKEN POPULATION IN EACH MOLECULAR ORBITAL

                      1          2          3          4          5

                  2.000000   2.000000   2.000000   2.000000   2.000000

    1             2.000121  -0.000322   0.000623   2.003696   1.993701
    2            -0.000060   1.000161   0.999689  -0.001848   0.003149
    3            -0.000060   1.000161   0.999689  -0.001848   0.003149

                      6          7          8          9         10

                  2.000000   2.000000   2.000000   2.000000   2.000000

    1             1.999659   1.998961   0.706049   0.633036   0.826139
    2             0.000170   0.000519   0.646976   0.683482   0.586930
    3             0.000170   0.000519   0.646976   0.683482   0.586930

                     11         12         13         14         15

                  2.000000   2.000000   2.000000   2.000000   2.000000

    1             0.842670   0.194403   0.191316   0.283820   0.248794
    2             0.578665   0.902799   0.904342   0.858090   0.875603
    3             0.578665   0.902799   0.904342   0.858090   0.875603

                     16

                  2.000000

    1             1.779158
    2             0.110421
    3             0.110421

               ----- POPULATIONS IN EACH AO -----
                             MULLIKEN      LOWDIN
              1  S  1  S      2.00028     1.99588
              2  S  1  S      2.01236     1.88388
              3  S  1  S      0.77943     0.46559
              4  S  1  S      1.25537     0.67307
              5  S  1  X      1.99695     1.95727
              6  S  1  Y      1.99560     1.95562
              7  S  1  Z      1.99679     1.96455
              8  S  1  X      0.71979     0.61459
              9  S  1  Y      0.65097     0.57143
             10  S  1  Z      0.82107     0.77121
             11  S  1  X      0.07228     0.25298
             12  S  1  Y      0.15476     0.24322
             13  S  1  Z      0.22450     0.33897
             14  S  1 XX      0.15761     0.43962
             15  S  1 YY      0.27827     0.27018
             16  S  1 ZZ      0.28382     0.34138
             17  S  1 XY      0.27750     0.36953
             18  S  1 XZ      0.02447     0.36065
             19  S  1 YZ      0.00000     0.02514
             20  O  2  S      1.99855     1.97691
             21  O  2  S      0.79858     0.60536
             22  O  2  S      0.81053     0.47054
             23  O  2  X      1.13442     1.09462
             24  O  2  Y      0.95109     0.88297
             25  O  2  Z      1.10317     1.05474
             26  O  2  X      0.35969     0.49748
             27  O  2  Y      0.47685     0.51168
             28  O  2  Z      0.47041     0.53590
             29  O  2 XX      0.00660     0.22268
             30  O  2 YY      0.00995     0.17352
             31  O  2 ZZ      0.01572     0.17425
             32  O  2 XY      0.01199     0.02082
             33  O  2 XZ      0.00153     0.02909
             34  O  2 YZ      0.00000     0.00206
             35  O  3  S      1.99855     1.97691
             36  O  3  S      0.79858     0.60536
             37  O  3  S      0.81053     0.47054
             38  O  3  X      1.13442     1.09462
             39  O  3  Y      0.95109     0.88297
             40  O  3  Z      1.10317     1.05474
             41  O  3  X      0.35969     0.49748
             42  O  3  Y      0.47685     0.51168
             43  O  3  Z      0.47041     0.53590
             44  O  3 XX      0.00660     0.22268
             45  O  3 YY      0.00995     0.17352
             46  O  3 ZZ      0.01572     0.17425
             47  O  3 XY      0.01199     0.02082
             48  O  3 XZ      0.00153     0.02909
             49  O  3 YZ      0.00000     0.00206

          ----- MULLIKEN ATOMIC OVERLAP POPULATIONS -----
          (OFF-DIAGONAL ELEMENTS NEED TO BE MULTIPLIED BY 2)

             1           2           3

    1   15.4792635
    2    0.1112803   7.9829395
    3    0.1112803   0.0548682   7.9829395

          TOTAL MULLIKEN AND LOWDIN ATOMIC POPULATIONS
       ATOM         MULL.POP.    CHARGE          LOW.POP.     CHARGE
    1 S            15.701824    0.298176        15.494746    0.505254
    2 O             8.149088   -0.149088         8.252627   -0.252627
    3 O             8.149088   -0.149088         8.252627   -0.252627

          MULLIKEN SPHERICAL HARMONIC POPULATIONS
       ATOM           S       P       D      F      G      H      I    TOTAL
    1 S             6.05    8.63    1.02   0.00   0.00   0.00   0.00   15.70
    2 O             3.61    4.50    0.05   0.00   0.00   0.00   0.00    8.15
    3 O             3.61    4.50    0.05   0.00   0.00   0.00   0.00    8.15

          -------------------------------
          BOND ORDER AND VALENCE ANALYSIS     BOND ORDER THRESHOLD=0.050
          -------------------------------

                   BOND                       BOND                       BOND
  ATOM PAIR DIST  ORDER      ATOM PAIR DIST  ORDER      ATOM PAIR DIST  ORDER
    1   2  1.100  2.104        1   3  1.100  2.104        2   3  2.067  0.051

                       TOTAL       BONDED        FREE
      ATOM            VALENCE     VALENCE     VALENCE
    1 S                 4.209       4.209       0.000
    2 O                 2.155       2.155       0.000
    3 O                 2.155       2.155       0.000

          ---------------------
          ELECTROSTATIC MOMENTS
          ---------------------

 POINT   1           X           Y           Z (BOHR)    CHARGE
                 0.000000    0.000000    0.000000        0.00 (A.U.)
         DX          DY          DZ         /D/  (DEBYE)
     0.000000    0.000000    0.461246    0.461246
 ...... END OF PROPERTY EVALUATION ......
 STEP CPU TIME =     0.00 TOTAL CPU TIME =        4.8 (    0.1 MIN)
 TOTAL WALL CLOCK TIME=        4.8 SECONDS, CPU UTILIZATION IS  99.79%
               580000  WORDS OF DYNAMIC MEMORY USED
 EXECUTION OF GAMESS TERMINATED NORMALLY Thu Feb 26 00:11:56 2015
 DDI: 263624 bytes (0.3 MB / 0 MWords) used by master data server.

 ----------------------------------------
 CPU timing information for all processes
 ========================================
 0: 4.769 + 0.19 = 4.789
 ----------------------------------------
 ddikick.x: exited gracefully.
----- accounting info -----
Files used on the master node dftfe.crc.nd.edu were:
-rw-r--r-- 1 pmehta1 campus   37475 Feb 26 00:11 /tmp/gamess.dat
-rw-r--r-- 1 pmehta1 campus     142 Feb 26 00:11 /tmp/gamess.F05
-rw-r--r-- 1 pmehta1 campus 2340312 Feb 26 00:11 /tmp/gamess.F08
-rw-r--r-- 1 pmehta1 campus 1220440 Feb 26 00:11 /tmp/gamess.F10
Thu Feb 26 00:11:59 EST 2015
0.241u 0.180s 0:08.22 5.1%	0+0k 0+104io 0pf+0w
