----- GAMESS execution script 'rungms' -----
This job is running on host dftfe.crc.nd.edu
under operating system Linux at Thu Feb 26 00:11:59 EST 2015
Available scratch disk space (Kbyte units) at beginning of the job is
Filesystem     1K-blocks     Used Available Use% Mounted on
/dev/sda2      147771864 22809660 117455772  17% /
GAMESS temporary binary files will be written to /tmp
GAMESS supplementary output files will be written to /tmp
Copying input file gamess.inp to your run's scratch directory...

 Distributed Data Interface kickoff program.
 Initiating 1 compute processes on 1 nodes to run the following command:
 /opt/crc/gamess/2012R1/gamess/gamess.00.x gamess 

          ******************************************************
          *         GAMESS VERSION =  1 MAY 2012 (R1)          *
          *             FROM IOWA STATE UNIVERSITY             *
          * M.W.SCHMIDT, K.K.BALDRIDGE, J.A.BOATZ, S.T.ELBERT, *
          *   M.S.GORDON, J.H.JENSEN, S.KOSEKI, N.MATSUNAGA,   *
          *          K.A.NGUYEN, S.J.SU, T.L.WINDUS,           *
          *       TOGETHER WITH M.DUPUIS, J.A.MONTGOMERY       *
          *         J.COMPUT.CHEM.  14, 1347-1363(1993)        *
          **************** 64 BIT LINUX VERSION ****************

  SINCE 1993, STUDENTS AND POSTDOCS WORKING AT IOWA STATE UNIVERSITY
  AND ALSO IN THEIR VARIOUS JOBS AFTER LEAVING ISU HAVE MADE IMPORTANT
  CONTRIBUTIONS TO THE CODE:
     IVANA ADAMOVIC, CHRISTINE AIKENS, YURI ALEXEEV, POOJA ARORA,
     ANDREY ASADCHEV, ROB BELL, PRADIPTA BANDYOPADHYAY, JONATHAN BENTZ,
     BRETT BODE, GALINA CHABAN, WEI CHEN, CHEOL HO CHOI, PAUL DAY,
     ALBERT DEFUSCO, TIM DUDLEY, DMITRI FEDOROV, GRAHAM FLETCHER,
     MARK FREITAG, KURT GLAESEMANN, DAN KEMP, GRANT MERRILL,
     NORIYUKI MINEZAWA, JONATHAN MULLIN, TAKESHI NAGATA,
     SEAN NEDD, HEATHER NETZLOFF, BOSILJKA NJEGIC, RYAN OLSON, MIKE PAK,
     JIM SHOEMAKER, LYUDMILA SLIPCHENKO, SAROM SOK, JIE SONG,
     TETSUYA TAKETSUGU, SIMON WEBB, SOOHAENG YOO, FEDERICO ZAHARIEV

  ADDITIONAL CODE HAS BEEN PROVIDED BY COLLABORATORS IN OTHER GROUPS:
     IOWA STATE UNIVERSITY:
          JOE IVANIC, LAIMUTIS BYTAUTAS, KLAUS RUEDENBERG
     UNIVERSITY OF TOKYO: KIMIHIKO HIRAO, TAKAHITO NAKAJIMA,
          TAKAO TSUNEDA, MUNEAKI KAMIYA, SUSUMU YANAGISAWA,
          KIYOSHI YAGI, MAHITO CHIBA, SEIKEN TOKURA, NAOAKI KAWAKAMI
     UNIVERSITY OF AARHUS: FRANK JENSEN
     UNIVERSITY OF IOWA: VISVALDAS KAIRYS, HUI LI
     NATIONAL INST. OF STANDARDS AND TECHNOLOGY: WALT STEVENS, DAVID GARMER
     UNIVERSITY OF PISA: BENEDETTA MENNUCCI, JACOPO TOMASI
     UNIVERSITY OF MEMPHIS: HENRY KURTZ, PRAKASHAN KORAMBATH
     UNIVERSITY OF ALBERTA: TOBY ZENG, MARIUSZ KLOBUKOWSKI
     UNIVERSITY OF NEW ENGLAND: MARK SPACKMAN
     MIE UNIVERSITY: HIROAKI UMEDA
     MICHIGAN STATE UNIVERSITY:
          KAROL KOWALSKI, MARTA WLOCH, JEFFREY GOUR, JESSE LUTZ, PIOTR PIECUCH
     UNIVERSITY OF SILESIA: MONIKA MUSIAL, STANISLAW KUCHARSKI
     FACULTES UNIVERSITAIRES NOTRE-DAME DE LA PAIX:
          OLIVIER QUINET, BENOIT CHAMPAGNE
     UNIVERSITY OF CALIFORNIA - SANTA BARBARA: BERNARD KIRTMAN
     INSTITUTE FOR MOLECULAR SCIENCE:
          KAZUYA ISHIMURA, MICHIO KATOUDA, AND SHIGERU NAGASE
     UNIVERSITY OF NOTRE DAME: DAN CHIPMAN
     KYUSHU UNIVERSITY:
          HARUYUKI NAKANO,
          FENG LONG GU, JACEK KORCHOWIEC, MARCIN MAKOWSKI, AND YURIKO AOKI,
          HIROTOSHI MORI AND EISAKU MIYOSHI
     PENNSYLVANIA STATE UNIVERSITY:
          TZVETELIN IORDANOV, CHET SWALINA, JONATHAN SKONE,
          SHARON HAMMES-SCHIFFER
     WASEDA UNIVERSITY:
          MASATO KOBAYASHI, TOMOKO AKAMA, TSUGUKI TOUMA,
          TAKESHI YOSHIKAWA, YASUHIRO IKABATA, HIROMI NAKAI
     UNIVERSITY OF NEBRASKA:
          PEIFENG SU, DEJUN SI, NANDUN THELLAMUREGE, YALI WANG, HUI LI
     UNIVERSITY OF ZURICH:
          ROBERTO PEVERATI, KIM BALDRIDGE
     N. COPERNICUS UNIVERSITY AND JACKSON STATE UNIVERSITY:
          MARIA BARYSZ

 EXECUTION OF GAMESS BEGUN Thu Feb 26 00:11:59 2015

            ECHO OF THE FIRST FEW INPUT CARDS -
 INPUT CARD> $BASIS GBASIS=PC1 $END                                                         
 INPUT CARD> $CONTRL COORD=ZMT ISPHER=1 RUNTYP=ENERGY DFTTYP=PBE $END                       
 INPUT CARD>                                                                                
 INPUT CARD> $DATA                                                                          
 INPUT CARD>Title                                                                           
 INPUT CARD>Cnv 2                                                                           
 INPUT CARD>                                                                                
 INPUT CARD>S                                                                               
 INPUT CARD>O 1 1.10                                                                        
 INPUT CARD>O 1 1.10 2 150.0                                                                
 INPUT CARD> $END                                                                           
    1000000 WORDS OF MEMORY AVAILABLE

     BASIS OPTIONS
     -------------
     GBASIS=PC1          IGAUSS=       0      POLAR=NONE    
     NDFUNC=       0     NFFUNC=       0     DIFFSP=       F
     NPFUNC=       0      DIFFS=       F     BASNAM=        


     RUN TITLE
     ---------
 Title                                                                           

 THE POINT GROUP OF THE MOLECULE IS CNV     
 THE ORDER OF THE PRINCIPAL AXIS IS     2

 YOUR FULLY SUBSTITUTED Z-MATRIX IS
 S   
 O      1   1.1000000
 O      1   1.1000000  2  150.0000

 THE MOMENTS OF INERTIA ARE (AMU-ANGSTROM**2)
 IXX=     1.296   IYY=    36.115   IZZ=    37.411

 ATOM      ATOMIC                      COORDINATES (BOHR)
           CHARGE         X                   Y                   Z
 S          16.0     0.0000000000        0.0000000000       -0.2690780425
 O           8.0    -2.0078686498        0.0000000000        0.2689287407
 O           8.0     2.0078686498        0.0000000000        0.2689287407

          INTERNUCLEAR DISTANCES (ANGS.)
          ------------------------------

                1 S          2 O          3 O     

   1 S       0.0000000    1.1000000 *  1.1000000 *
   2 O       1.1000000 *  0.0000000    2.1250368 *
   3 O       1.1000000 *  2.1250368 *  0.0000000  

  * ... LESS THAN  3.000


     ATOMIC BASIS SET
     ----------------
 THE CONTRACTED PRIMITIVE FUNCTIONS HAVE BEEN UNNORMALIZED
 THE CONTRACTED BASIS FUNCTIONS ARE NOW NORMALIZED TO UNITY

  SHELL TYPE  PRIMITIVE        EXPONENT          CONTRACTION COEFFICIENT(S)

 S         

      1   S       1         55510.0000000    0.000587229760
      1   S       2          8326.7000000    0.004532413947
      1   S       3          1895.6000000    0.023265261648
      1   S       4           536.7700000    0.089696133027
      1   S       5           174.6700000    0.254098332277
      1   S       6            62.5780000    0.438665087637
      1   S       7            23.5730000    0.314547135094
      1   S       8             5.8908000    0.032727897102

      2   S       9          8326.7000000   -0.000019755715
      2   S      10          1895.6000000   -0.000043822381
      2   S      11           536.7700000   -0.001730264906
      2   S      12           174.6700000   -0.009381263460
      2   S      13            62.5780000   -0.064050766303
      2   S      14            23.5730000   -0.082478179196
      2   S      15             5.8908000    0.478342956889
      2   S      16             2.1852000    0.626896670208

      3   S      17          1895.6000000    0.000016227260
      3   S      18           536.7700000    0.000191135619
      3   S      19           174.6700000    0.001952069674
      3   S      20            62.5780000    0.010578701087
      3   S      21            23.5730000    0.022164934551
      3   S      22             5.8908000   -0.184968323118
      3   S      23             2.1852000   -0.480920750976
      3   S      24             0.4528200    1.243822243872

      4   S      25             0.1620200    1.000000000000

      5   P      26           395.4500000    0.004642761329
      5   P      27            92.8340000    0.036023396489
      5   P      28            29.2660000    0.149058869978
      5   P      29            10.5950000    0.360033266263
      5   P      30             4.0272000    0.455756476221
      5   P      31             1.5484000    0.206167664178

      6   P      32            92.8340000    0.000169901442
      6   P      33            29.2660000   -0.002541839934
      6   P      34            10.5950000   -0.007867614595
      6   P      35             4.0272000   -0.037231009184
      6   P      36             1.5484000    0.161417246830
      6   P      37             0.4613400    0.902230419976

      7   P      38             0.1313100    1.000000000000

      8   D      39             0.5500000    1.000000000000

 O         

     15   S      40          2306.7000000    0.005424388755
     15   S      41           347.1500000    0.040474749465
     15   S      42            78.8900000    0.180219634554
     15   S      43            21.8760000    0.462370311787
     15   S      44             6.6646000    0.454888396263

     16   S      45           347.1500000   -0.000655003786
     16   S      46            78.8900000   -0.005362052952
     16   S      47            21.8760000   -0.074902158894
     16   S      48             6.6646000   -0.181442579655
     16   S      49             1.0669000    1.102006874042

     17   S      50             0.3070000    1.000000000000

     18   P      51            17.0220000    0.068979967443
     18   P      52             3.6838000    0.351985516325
     18   P      53             0.9923400    0.724036547822

     19   P      54             0.2448700    1.000000000000

     20   D      55             1.0000000    1.000000000000

 TOTAL NUMBER OF BASIS SET SHELLS             =   20
 NUMBER OF CARTESIAN GAUSSIAN BASIS FUNCTIONS =   49
 NOTE: THIS RUN WILL RESTRICT THE MO VARIATION SPACE TO SPHERICAL HARMONICS.
 THE NUMBER OF ORBITALS KEPT IN THE VARIATIONAL SPACE WILL BE PRINTED LATER.
 NUMBER OF ELECTRONS                          =   32
 CHARGE OF MOLECULE                           =    0
 SPIN MULTIPLICITY                            =    1
 NUMBER OF OCCUPIED ORBITALS (ALPHA)          =   16
 NUMBER OF OCCUPIED ORBITALS (BETA )          =   16
 TOTAL NUMBER OF ATOMS                        =    3
 THE NUCLEAR REPULSION ENERGY IS      139.0912754989

     LEBEDEV GRID-BASED DFT OPTIONS
     ------------------------------
     DFTTYP=PBE     
     NRAD  =      96     NLEB  =     302
     NRAD0 =      24     NLEB0 =     110
     SWOFF =    5.00E-03 (PURE SCF -> DFT)
     SWITCH=    3.00E-04 (COARSE -> TIGHT GRID)
     THRESH=    0.00E+00 GTHRE=    1.00E+00

 GRIMME'S EMPIRICAL DISPERSION CORRECTION= F

     $CONTRL OPTIONS
     ---------------
 SCFTYP=RHF          RUNTYP=ENERGY       EXETYP=RUN     
 MPLEVL=       0     CITYP =NONE         CCTYP =NONE         VBTYP =NONE    
 DFTTYP=PBE          TDDFT =NONE    
 MULT  =       1     ICHARG=       0     NZVAR =       0     COORD =ZMT     
 PP    =NONE         RELWFN=NONE         LOCAL =NONE         NUMGRD=       F
 ISPHER=       1     NOSYM =       0     MAXIT =      30     UNITS =ANGS    
 PLTORB=       F     MOLPLT=       F     AIMPAC=       F     FRIEND=        
 NPRINT=       7     IREST =       0     GEOM  =INPUT   
 NORMF =       0     NORMP =       0     ITOL  =      20     ICUT  =       9
 INTTYP=BEST         GRDTYP=BEST         QMTTOL= 1.0E-06

     $SYSTEM OPTIONS
     ---------------
  REPLICATED MEMORY=     1000000 WORDS (ON EVERY NODE).
 DISTRIBUTED MEMDDI=           0 MILLION WORDS IN AGGREGATE,
 MEMDDI DISTRIBUTED OVER   1 PROCESSORS IS           0 WORDS/PROCESSOR.
 TOTAL MEMORY REQUESTED ON EACH PROCESSOR=     1000000 WORDS.
 TIMLIM=      525600.00 MINUTES, OR     365.0 DAYS.
 PARALL= F  BALTYP=  DLB     KDIAG=    0  COREFL= F
 MXSEQ2=     300 MXSEQ3=     150

          ----------------
          PROPERTIES INPUT
          ----------------

     MOMENTS            FIELD           POTENTIAL          DENSITY
 IEMOM =       1   IEFLD =       0   IEPOT =       0   IEDEN =       0
 WHERE =COMASS     WHERE =NUCLEI     WHERE =NUCLEI     WHERE =NUCLEI  
 OUTPUT=BOTH       OUTPUT=BOTH       OUTPUT=BOTH       OUTPUT=BOTH    
 IEMINT=       0   IEFINT=       0                     IEDINT=       0
                                                       MORB  =       0
          EXTRAPOLATION IN EFFECT
          DIIS IN EFFECT
 ORBITAL PRINTING OPTION: NPREO=     1    49     2     1

     -------------------------------
     INTEGRAL TRANSFORMATION OPTIONS
     -------------------------------
     NWORD  =            0
     CUTOFF = 1.0E-09     MPTRAN =       0
     DIRTRF =       F     AOINTS =DUP     

          ----------------------
          INTEGRAL INPUT OPTIONS
          ----------------------
 NOPK  =       1 NORDER=       0 SCHWRZ=       F

   --- ENCODED Z MATRIX ---
 COORD  TYPE   I   J   K   L   M   N
    1      1    3   1
    2      1    2   1
    3      2    2   1   3

 THE DETERMINANT OF THE G MATRIX IS 10**(    -4)

 THE DETERMINANT OF THE G MATRIX IS 10**(    -4)
 * * * WARNING * * *
 YOUR B MATRIX HAS A SMALL DETERMINANT.
 THIS SUGGESTS YOU MAY HAVE BADLY CHOSEN COORDINATES.

     ------------------------------------------
     THE POINT GROUP IS CNV, NAXIS= 2, ORDER= 4
     ------------------------------------------

 -- VARIATIONAL SPACE WILL BE RESTRICTED TO PURE SPHERICAL HARMONICS ONLY --
 AFTER EXCLUDING CONTAMINANT COMBINATIONS FROM THE CARTESIAN GAUSSIAN BASIS
 SET, THE NUMBER OF SPHERICAL HARMONICS KEPT IN THE VARIATION SPACE IS   46

     DIMENSIONS OF THE SYMMETRY SUBSPACES ARE
 A1  =   19     A2  =    5     B1  =   14     B2  =    8

 ..... DONE SETTING UP THE RUN .....
 STEP CPU TIME =     0.00 TOTAL CPU TIME =        0.0 (    0.0 MIN)
 TOTAL WALL CLOCK TIME=        0.0 SECONDS, CPU UTILIZATION IS   0.00%

          ********************
          1 ELECTRON INTEGRALS
          ********************
 ...... END OF ONE-ELECTRON INTEGRALS ......
 STEP CPU TIME =     0.01 TOTAL CPU TIME =        0.0 (    0.0 MIN)
 TOTAL WALL CLOCK TIME=        0.0 SECONDS, CPU UTILIZATION IS 100.00%

          -------------
          GUESS OPTIONS
          -------------
          GUESS =HUCKEL            NORB  =       0          NORDER=       0
          MIX   =       F          PRTMO =       F          PUNMO =       F
          TOLZ  = 1.0E-08          TOLE  = 1.0E-05
          SYMDEN=       F          PURIFY=       F

 INITIAL GUESS ORBITALS GENERATED BY HUCKEL   ROUTINE.
 HUCKEL GUESS REQUIRES     21583 WORDS.

 STATISTICS FOR GENERATION OF SYMMETRY ORBITAL -Q- MATRIX
 NUMBER OF CARTESIAN ATOMIC ORBITALS=         49
 NUMBER OF SPHERICAL CONTAMINANTS DROPPED=     3
 NUMBER OF LINEARLY DEPENDENT MOS DROPPED=     0
 TOTAL NUMBER OF MOS IN VARIATION SPACE=      46

 SYMMETRIES FOR INITIAL GUESS ORBITALS FOLLOW.   BOTH SET(S).
    16 ORBITALS ARE OCCUPIED (    7 CORE ORBITALS).
     8=?A1      9=?B1     10=B2      11=?A1     12=A1      13=B1      14=A2  
    15=B1      16=A1      17=B2      18=A1      19=B1      20=A1      21=A1  
    22=A1      23=A1      24=A1      25=A1      26=A1  
 ...... END OF INITIAL ORBITAL SELECTION ......
 STEP CPU TIME =     0.00 TOTAL CPU TIME =        0.0 (    0.0 MIN)
 TOTAL WALL CLOCK TIME=        0.0 SECONDS, CPU UTILIZATION IS  50.00%

                    ----------------------
                    AO INTEGRAL TECHNOLOGY
                    ----------------------
     S,P,L SHELL ROTATED AXIS INTEGRALS, REPROGRAMMED BY
        KAZUYA ISHIMURA (IMS) AND JOSE SIERRA (SYNSTAR).
     S,P,D,L SHELL ROTATED AXIS INTEGRALS PROGRAMMED BY
        KAZUYA ISHIMURA (INSTITUTE FOR MOLECULAR SCIENCE).
     S,P,D,F,G SHELL TO TOTAL QUARTET ANGULAR MOMENTUM SUM 5,
        ERIC PROGRAM BY GRAHAM FLETCHER (ELORET AND NASA ADVANCED
        SUPERCOMPUTING DIVISION, AMES RESEARCH CENTER).
     S,P,D,F,G,L SHELL GENERAL RYS QUADRATURE PROGRAMMED BY
        MICHEL DUPUIS (PACIFIC NORTHWEST NATIONAL LABORATORY).

          --------------------
          2 ELECTRON INTEGRALS
          --------------------

 THE -PK- OPTION IS OFF, THE INTEGRALS ARE NOT IN SUPERMATRIX FORM.
 STORING   15000 INTEGRALS/RECORD ON DISK, USING 12 BYTES/INTEGRAL.
 TWO ELECTRON INTEGRAL EVALUATION REQUIRES   90606 WORDS OF MEMORY.
 II,JST,KST,LST =  1  1  1  1 NREC =         1 INTLOC =    1
 II,JST,KST,LST =  2  1  1  1 NREC =         1 INTLOC =    2
 II,JST,KST,LST =  3  1  1  1 NREC =         1 INTLOC =    7
 II,JST,KST,LST =  4  1  1  1 NREC =         1 INTLOC =   22
 II,JST,KST,LST =  5  1  1  1 NREC =         1 INTLOC =   56
 II,JST,KST,LST =  6  1  1  1 NREC =         1 INTLOC =  125
 II,JST,KST,LST =  7  1  1  1 NREC =         1 INTLOC =  329
 II,JST,KST,LST =  8  1  1  1 NREC =         1 INTLOC =  776
 II,JST,KST,LST =  9  1  1  1 NREC =         1 INTLOC = 2864
 II,JST,KST,LST = 10  1  1  1 NREC =         1 INTLOC = 2864
 II,JST,KST,LST = 11  1  1  1 NREC =         1 INTLOC = 2864
 II,JST,KST,LST = 12  1  1  1 NREC =         1 INTLOC = 2864
 II,JST,KST,LST = 13  1  1  1 NREC =         1 INTLOC = 2864
 II,JST,KST,LST = 14  1  1  1 NREC =         1 INTLOC = 2864
 II,JST,KST,LST = 15  1  1  1 NREC =         1 INTLOC = 2864
 II,JST,KST,LST = 16  1  1  1 NREC =         1 INTLOC = 5241
 II,JST,KST,LST = 17  1  1  1 NREC =         1 INTLOC = 8614
 II,JST,KST,LST = 18  1  1  1 NREC =         1 INTLOC =13118
 II,JST,KST,LST = 19  1  1  1 NREC =         3 INTLOC = 1615
 II,JST,KST,LST = 20  1  1  1 NREC =         5 INTLOC = 3167
 TOTAL NUMBER OF NONZERO TWO-ELECTRON INTEGRALS =              182985
         13 INTEGRAL RECORDS WERE STORED ON DISK FILE  8.
  ...... END OF TWO-ELECTRON INTEGRALS .....
 STEP CPU TIME =     0.17 TOTAL CPU TIME =        0.2 (    0.0 MIN)
 TOTAL WALL CLOCK TIME=        0.2 SECONDS, CPU UTILIZATION IS  94.74%

          --------------------------
               R-PBE SCF CALCULATION
          --------------------------

     NUCLEAR ENERGY =       139.0912754989
     MAXIT =   30     NPUNCH=    2
     EXTRAP=T  DAMP=F  SHIFT=F  RSTRCT=F  DIIS=T  DEM=F  SOSCF=F
         DENSITY MATRIX CONVERGENCE THRESHOLD=  1.00E-05
     COARSE -> FINE DFT GRID SWITCH THRESHOLD=  3.00E-04 (SWITCH IN $DFT)
                   HF -> DFT SWITCH THRESHOLD=  5.00E-03 (SWOFF IN $DFT)
     MEMORY REQUIRED FOR RHF ITERS=    183108 WORDS.

 DFT CODE IS SWITCHING FROM THE FINE GRID NRAD= 96,  NLEB=  302
                      TO THE COARSE GRID NRAD0= 24, NLEB0=  110

     EXCHANGE FUNCTIONAL   =PBE       
     CORRELATION FUNCTIONAL=PBE       
     DFT THRESHOLD         =.460E-07
     GRID CHANGE THRESHOLD =.300E-03
 FOR AN EULER-MACLAURIN QUADRATURE USING  96 RADIAL POINTS:
 SMALLEST GAUSSIAN PRIMITIVE EXPONENT=        0.1313100000 OF TYPE -P-
 ON ATOM NUMBER   1 HAS RADIAL NORMALIZATION=  1.000000
  LARGEST GAUSSIAN PRIMITIVE EXPONENT=    55510.0000000000 OF TYPE -S-
 ON ATOM NUMBER   1 HAS RADIAL NORMALIZATION=  0.999999
 DFT IS SWITCHED OFF, PERFORMING PURE SCF UNTIL SWOFF THRESHOLD IS REACHED.

 ITER EX DEM     TOTAL ENERGY        E CHANGE  DENSITY CHANGE    DIIS ERROR
   1  0  0     -544.9222129858  -544.9222129858   0.695479982   1.208355370
          * * *   INITIATING DIIS PROCEDURE   * * *
   2  1  0     -546.2682745801    -1.3460615944   1.238856423   0.170505265
   3  2  0     -546.3888596621    -0.1205850820   0.227218523   0.069211538
   4  3  0     -546.4094761297    -0.0206164676   0.272576601   0.032614520
   5  4  0     -546.4154264959    -0.0059503663   0.142899150   0.012020146
   6  5  0     -546.4163433163    -0.0009168204   0.026601836   0.002479743
   7  6  0     -546.4163901484    -0.0000468321   0.003209694   0.000358210
 CONVERGED TO SWOFF, SO DFT CALCULATION IS NOW SWITCHED ON.
          * * *   INITIATING DIIS PROCEDURE   * * *
   8  7  0     -547.4823584622    -1.0659683138   0.259706595   0.088251646
   9  8  0     -547.4981882637    -0.0158298015   0.088481483   0.033833671
  10  9  0     -547.4984591580    -0.0002708943   0.030318970   0.030397548
  11 10  0     -547.5007982993    -0.0023391413   0.006827515   0.005877424
  12 11  0     -547.5008541939    -0.0000558946   0.000239957   0.000461411
 DFT CODE IS SWITCHING BACK TO THE FINE GRID
          * * *   INITIATING DIIS PROCEDURE   * * *
  13 12  0     -547.4659801214     0.0348740725   0.017549451   0.012615441
  14 13  0     -547.4662378018    -0.0002576804   0.006343095   0.002592181
  15 14  0     -547.4662469976    -0.0000091958   0.003626149   0.001684709
  16 15  0     -547.4662527786    -0.0000057811   0.000306305   0.000360909
  17 16  0     -547.4662529838    -0.0000002051   0.000122126   0.000089343
  18 17  0     -547.4662530063    -0.0000000226   0.000014162   0.000005003
  19 18  0     -547.4662530064     0.0000000000   0.000012432   0.000001192
  20 19  0     -547.4662530064     0.0000000000   0.000001963   0.000000168

          -----------------
          DENSITY CONVERGED
          -----------------
     TIME TO FORM FOCK OPERATORS=       4.4 SECONDS (       0.2 SEC/ITER)
     TIME TO SOLVE SCF EQUATIONS=       0.0 SECONDS (       0.0 SEC/ITER)

 FINAL R-PBE ENERGY IS     -547.4662530064 AFTER  20 ITERATIONS
 DFT EXCHANGE + CORRELATION ENERGY =       -43.3467773148
 TOTAL ELECTRON NUMBER             =        31.9999923191

          ------------
          EIGENVECTORS
          ------------

                      1          2          3          4          5
                  -88.1191   -18.7583   -18.7582    -7.8017    -5.8315
                     A1         A1         B1         A1         B1  
    1  S  1  S    1.002986  -0.000105   0.000000  -0.273545   0.000000
    2  S  1  S   -0.010058   0.000396   0.000000   1.038322   0.000000
    3  S  1  S    0.002291  -0.001687   0.000000   0.044694   0.000000
    4  S  1  S   -0.000009   0.009724   0.000000  -0.004934   0.000000
    5  S  1  X    0.000000   0.000000  -0.000258   0.000000   0.991733
    6  S  1  Y    0.000000   0.000000   0.000000   0.000000   0.000000
    7  S  1  Z    0.000052  -0.000058   0.000000   0.016230   0.000000
    8  S  1  X    0.000000   0.000000   0.004105   0.000000   0.014144
    9  S  1  Y    0.000000   0.000000   0.000000   0.000000   0.000000
   10  S  1  Z    0.000163  -0.000004   0.000000   0.002587   0.000000
   11  S  1  X    0.000000   0.000000  -0.007632   0.000000  -0.000305
   12  S  1  Y    0.000000   0.000000   0.000000   0.000000   0.000000
   13  S  1  Z    0.000032   0.003225   0.000000  -0.000141   0.000000
   14  S  1 XX    0.000520  -0.004752   0.000000   0.004741   0.000000
   15  S  1 YY   -0.000266   0.002203   0.000000  -0.002363   0.000000
   16  S  1 ZZ   -0.000254   0.002549   0.000000  -0.002379   0.000000
   17  S  1 XY    0.000000   0.000000   0.000000   0.000000   0.000000
   18  S  1 XZ    0.000000   0.000000   0.002862   0.000000   0.003297
   19  S  1 YZ    0.000000   0.000000   0.000000   0.000000   0.000000
   20  O  2  S   -0.000013   0.703237   0.703138  -0.002409   0.004722
   21  O  2  S   -0.000140   0.028750   0.028077   0.000775  -0.005204
   22  O  2  S   -0.000677  -0.013186  -0.013095  -0.004668   0.001043
   23  O  2  X   -0.000226   0.003079   0.002777   0.002374  -0.007717
   24  O  2  Y    0.000000   0.000000   0.000000   0.000000   0.000000
   25  O  2  Z    0.000091  -0.000814  -0.000294  -0.000382   0.002722
   26  O  2  X   -0.000394  -0.003479  -0.000549  -0.003363   0.001113
   27  O  2  Y    0.000000   0.000000   0.000000   0.000000   0.000000
   28  O  2  Z    0.000158  -0.000918   0.001505   0.001328   0.000319
   29  O  2 XX   -0.000010   0.000197   0.001030   0.002600  -0.003382
   30  O  2 YY    0.000023  -0.000326  -0.000289  -0.001314   0.002125
   31  O  2 ZZ   -0.000013   0.000129  -0.000741  -0.001286   0.001257
   32  O  2 XY    0.000000   0.000000   0.000000   0.000000   0.000000
   33  O  2 XZ    0.000065  -0.000855   0.000223  -0.000816   0.002423
   34  O  2 YZ    0.000000   0.000000   0.000000   0.000000   0.000000
   35  O  3  S   -0.000013   0.703237  -0.703138  -0.002409  -0.004722
   36  O  3  S   -0.000140   0.028750  -0.028077   0.000775   0.005204
   37  O  3  S   -0.000677  -0.013186   0.013095  -0.004668  -0.001043
   38  O  3  X    0.000226  -0.003079   0.002777  -0.002374  -0.007717
   39  O  3  Y    0.000000   0.000000   0.000000   0.000000   0.000000
   40  O  3  Z    0.000091  -0.000814   0.000294  -0.000382  -0.002722
   41  O  3  X    0.000394   0.003479  -0.000549   0.003363   0.001113
   42  O  3  Y    0.000000   0.000000   0.000000   0.000000   0.000000
   43  O  3  Z    0.000158  -0.000918  -0.001505   0.001328  -0.000319
   44  O  3 XX   -0.000010   0.000197  -0.001030   0.002600   0.003382
   45  O  3 YY    0.000023  -0.000326   0.000289  -0.001314  -0.002125
   46  O  3 ZZ   -0.000013   0.000129   0.000741  -0.001286  -0.001257
   47  O  3 XY    0.000000   0.000000   0.000000   0.000000   0.000000
   48  O  3 XZ   -0.000065   0.000855   0.000223   0.000816   0.002423
   49  O  3 YZ    0.000000   0.000000   0.000000   0.000000   0.000000

                      6          7          8          9         10
                   -5.8083    -5.8042    -1.2336    -1.1218    -0.5636
                     B2         A1         A1         B1         B2  
    1  S  1  S    0.000000   0.005032   0.066228   0.000000   0.000000
    2  S  1  S    0.000000  -0.018791  -0.229763   0.000000   0.000000
    3  S  1  S    0.000000   0.001387   0.307022   0.000000   0.000000
    4  S  1  S    0.000000  -0.000319   0.070694   0.000000   0.000000
    5  S  1  X    0.000000   0.000000   0.000000  -0.247320   0.000000
    6  S  1  Y    0.996018   0.000000   0.000000   0.000000  -0.212504
    7  S  1  Z    0.000000   0.995686  -0.065362   0.000000   0.000000
    8  S  1  X    0.000000   0.000000   0.000000   0.356884   0.000000
    9  S  1  Y    0.011028   0.000000   0.000000   0.000000   0.445590
   10  S  1  Z    0.000000   0.010941   0.088912   0.000000   0.000000
   11  S  1  X    0.000000   0.000000   0.000000  -0.003047   0.000000
   12  S  1  Y   -0.000897   0.000000   0.000000   0.000000   0.111033
   13  S  1  Z    0.000000  -0.000780  -0.012307   0.000000   0.000000
   14  S  1 XX    0.000000  -0.000515   0.089486   0.000000   0.000000
   15  S  1 YY    0.000000  -0.000913  -0.048568   0.000000   0.000000
   16  S  1 ZZ    0.000000   0.001428  -0.040918   0.000000   0.000000
   17  S  1 XY    0.000000   0.000000   0.000000   0.000000   0.000000
   18  S  1 XZ    0.000000   0.000000   0.000000   0.072126   0.000000
   19  S  1 YZ    0.001310   0.000000   0.000000   0.000000   0.052922
   20  O  2  S    0.000000  -0.001175  -0.134108   0.151298   0.000000
   21  O  2  S    0.000000   0.001576   0.235297  -0.279216   0.000000
   22  O  2  S    0.000000  -0.000069   0.218808  -0.244262   0.000000
   23  O  2  X    0.000000   0.002409   0.165282  -0.161988   0.000000
   24  O  2  Y    0.001267   0.000000   0.000000   0.000000   0.350569
   25  O  2  Z    0.000000   0.000623  -0.028062   0.041818   0.000000
   26  O  2  X    0.000000  -0.000405   0.041116  -0.011222   0.000000
   27  O  2  Y   -0.000168   0.000000   0.000000   0.000000   0.171522
   28  O  2  Z    0.000000  -0.000134   0.003311   0.008294   0.000000
   29  O  2 XX    0.000000   0.001238   0.029496  -0.022218   0.000000
   30  O  2 YY    0.000000  -0.000329  -0.013719   0.013485   0.000000
   31  O  2 ZZ    0.000000  -0.000908  -0.015777   0.008733   0.000000
   32  O  2 XY    0.001063   0.000000   0.000000   0.000000   0.035282
   33  O  2 XZ    0.000000   0.000553  -0.006620   0.015061   0.000000
   34  O  2 YZ   -0.000396   0.000000   0.000000   0.000000  -0.007812
   35  O  3  S    0.000000  -0.001175  -0.134108  -0.151298   0.000000
   36  O  3  S    0.000000   0.001576   0.235297   0.279216   0.000000
   37  O  3  S    0.000000  -0.000069   0.218808   0.244262   0.000000
   38  O  3  X    0.000000  -0.002409  -0.165282  -0.161988   0.000000
   39  O  3  Y    0.001267   0.000000   0.000000   0.000000   0.350569
   40  O  3  Z    0.000000   0.000623  -0.028062  -0.041818   0.000000
   41  O  3  X    0.000000   0.000405  -0.041116  -0.011222   0.000000
   42  O  3  Y   -0.000168   0.000000   0.000000   0.000000   0.171522
   43  O  3  Z    0.000000  -0.000134   0.003311  -0.008294   0.000000
   44  O  3 XX    0.000000   0.001238   0.029496   0.022218   0.000000
   45  O  3 YY    0.000000  -0.000329  -0.013719  -0.013485   0.000000
   46  O  3 ZZ    0.000000  -0.000908  -0.015777  -0.008733   0.000000
   47  O  3 XY   -0.001063   0.000000   0.000000   0.000000  -0.035282
   48  O  3 XZ    0.000000  -0.000553   0.006620   0.015061   0.000000
   49  O  3 YZ   -0.000396   0.000000   0.000000   0.000000  -0.007812

                     11         12         13         14         15
                   -0.5541    -0.4988    -0.4502    -0.4321    -0.4147
                     A1         A1         B1         A2         B1  
    1  S  1  S   -0.013323   0.044927   0.000000   0.000000   0.000000
    2  S  1  S    0.039919  -0.129090   0.000000   0.000000   0.000000
    3  S  1  S   -0.079463   0.272041   0.000000   0.000000   0.000000
    4  S  1  S   -0.085189   0.048970   0.000000   0.000000   0.000000
    5  S  1  X    0.000000   0.000000   0.168230   0.000000   0.028208
    6  S  1  Y    0.000000   0.000000   0.000000   0.000000   0.000000
    7  S  1  Z   -0.199009  -0.026689   0.000000   0.000000   0.000000
    8  S  1  X    0.000000   0.000000  -0.301561   0.000000  -0.040659
    9  S  1  Y    0.000000   0.000000   0.000000   0.000000   0.000000
   10  S  1  Z    0.416939   0.047597   0.000000   0.000000   0.000000
   11  S  1  X    0.000000   0.000000   0.066825   0.000000   0.043879
   12  S  1  Y    0.000000   0.000000   0.000000   0.000000   0.000000
   13  S  1  Z    0.106676  -0.028054   0.000000   0.000000   0.000000
   14  S  1 XX   -0.086921  -0.021124   0.000000   0.000000   0.000000
   15  S  1 YY   -0.002509   0.010109   0.000000   0.000000   0.000000
   16  S  1 ZZ    0.089430   0.011015   0.000000   0.000000   0.000000
   17  S  1 XY    0.000000   0.000000   0.000000  -0.209865   0.000000
   18  S  1 XZ    0.000000   0.000000   0.023494   0.000000  -0.198350
   19  S  1 YZ    0.000000   0.000000   0.000000   0.000000   0.000000
   20  O  2  S    0.002811   0.093526   0.059931   0.000000   0.012044
   21  O  2  S    0.006965  -0.190339  -0.122569   0.000000  -0.045081
   22  O  2  S    0.013585  -0.333982  -0.255702   0.000000  -0.064105
   23  O  2  X    0.079561   0.343865   0.350573   0.000000   0.264556
   24  O  2  Y    0.000000   0.000000   0.000000   0.456079   0.000000
   25  O  2  Z    0.343395  -0.062072  -0.251736   0.000000   0.379554
   26  O  2  X    0.042844   0.188244   0.153913   0.000000   0.144551
   27  O  2  Y    0.000000   0.000000   0.000000   0.261280   0.000000
   28  O  2  Z    0.163468  -0.030407  -0.141984   0.000000   0.221209
   29  O  2 XX    0.010018   0.022447   0.021078   0.000000   0.024502
   30  O  2 YY    0.000416  -0.012348  -0.013886   0.000000  -0.010119
   31  O  2 ZZ   -0.010434  -0.010098  -0.007192   0.000000  -0.014383
   32  O  2 XY    0.000000   0.000000   0.000000   0.025543   0.000000
   33  O  2 XZ    0.029238  -0.007616  -0.022195   0.000000   0.018942
   34  O  2 YZ    0.000000   0.000000   0.000000  -0.002549   0.000000
   35  O  3  S    0.002811   0.093526  -0.059931   0.000000  -0.012044
   36  O  3  S    0.006965  -0.190339   0.122569   0.000000   0.045081
   37  O  3  S    0.013585  -0.333982   0.255702   0.000000   0.064105
   38  O  3  X   -0.079561  -0.343865   0.350573   0.000000   0.264556
   39  O  3  Y    0.000000   0.000000   0.000000  -0.456079   0.000000
   40  O  3  Z    0.343395  -0.062072   0.251736   0.000000  -0.379554
   41  O  3  X   -0.042844  -0.188244   0.153913   0.000000   0.144551
   42  O  3  Y    0.000000   0.000000   0.000000  -0.261280   0.000000
   43  O  3  Z    0.163468  -0.030407   0.141984   0.000000  -0.221209
   44  O  3 XX    0.010018   0.022447  -0.021078   0.000000  -0.024502
   45  O  3 YY    0.000416  -0.012348   0.013886   0.000000   0.010119
   46  O  3 ZZ   -0.010434  -0.010098   0.007192   0.000000   0.014383
   47  O  3 XY    0.000000   0.000000   0.000000   0.025543   0.000000
   48  O  3 XZ   -0.029238   0.007616  -0.022195   0.000000   0.018942
   49  O  3 YZ    0.000000   0.000000   0.000000   0.002549   0.000000

                     16         17         18         19         20
                   -0.1713     0.0084     0.0820     0.2338     0.3447
                     A1         B2         A1         B1         B2  
    1  S  1  S    0.023374   0.000000  -0.000397   0.000000   0.000000
    2  S  1  S   -0.114369   0.000000  -0.072308   0.000000   0.000000
    3  S  1  S    0.109400   0.000000  -0.083194   0.000000   0.000000
    4  S  1  S    1.246297   0.000000   1.318573   0.000000   0.000000
    5  S  1  X    0.000000   0.000000   0.000000  -0.015544   0.000000
    6  S  1  Y    0.000000  -0.181057   0.000000   0.000000  -0.305421
    7  S  1  Z    0.123526   0.000000  -0.119969   0.000000   0.000000
    8  S  1  X    0.000000   0.000000   0.000000   0.161863   0.000000
    9  S  1  Y    0.000000   0.499873   0.000000   0.000000   1.142292
   10  S  1  Z   -0.264175   0.000000   0.368555   0.000000   0.000000
   11  S  1  X    0.000000   0.000000   0.000000   2.135725   0.000000
   12  S  1  Y    0.000000   0.936134   0.000000   0.000000  -1.088461
   13  S  1  Z   -0.166883   0.000000   1.126895   0.000000   0.000000
   14  S  1 XX   -0.248903   0.000000  -0.089952   0.000000   0.000000
   15  S  1 YY    0.129154   0.000000   0.147056   0.000000   0.000000
   16  S  1 ZZ    0.119749   0.000000  -0.057104   0.000000   0.000000
   17  S  1 XY    0.000000   0.000000   0.000000   0.000000   0.000000
   18  S  1 XZ    0.000000   0.000000   0.000000  -0.026998   0.000000
   19  S  1 YZ    0.000000  -0.081199   0.000000   0.000000   0.064714
   20  O  2  S    0.057624   0.000000   0.051720  -0.075797   0.000000
   21  O  2  S   -0.083513   0.000000  -0.084982   0.089747   0.000000
   22  O  2  S   -0.379807   0.000000  -0.650921   1.324978   0.000000
   23  O  2  X   -0.193760   0.000000  -0.174285  -0.078491   0.000000
   24  O  2  Y    0.000000  -0.387790   0.000000   0.000000  -0.035945
   25  O  2  Z    0.227126   0.000000  -0.287798  -0.093089   0.000000
   26  O  2  X   -0.169019   0.000000  -0.303102   0.096953   0.000000
   27  O  2  Y    0.000000  -0.474258   0.000000   0.000000  -0.048536
   28  O  2  Z    0.201863   0.000000  -0.370648  -0.207521   0.000000
   29  O  2 XX   -0.035788   0.000000  -0.026472   0.027227   0.000000
   30  O  2 YY    0.018574   0.000000   0.018813  -0.013783   0.000000
   31  O  2 ZZ    0.017214   0.000000   0.007659  -0.013444   0.000000
   32  O  2 XY    0.000000  -0.008454   0.000000   0.000000   0.042264
   33  O  2 XZ    0.016058   0.000000   0.006257  -0.013940   0.000000
   34  O  2 YZ    0.000000  -0.002194   0.000000   0.000000  -0.008738
   35  O  3  S    0.057624   0.000000   0.051720   0.075797   0.000000
   36  O  3  S   -0.083513   0.000000  -0.084982  -0.089747   0.000000
   37  O  3  S   -0.379807   0.000000  -0.650921  -1.324978   0.000000
   38  O  3  X    0.193760   0.000000   0.174285  -0.078491   0.000000
   39  O  3  Y    0.000000  -0.387790   0.000000   0.000000  -0.035945
   40  O  3  Z    0.227126   0.000000  -0.287798   0.093089   0.000000
   41  O  3  X    0.169019   0.000000   0.303102   0.096953   0.000000
   42  O  3  Y    0.000000  -0.474258   0.000000   0.000000  -0.048536
   43  O  3  Z    0.201863   0.000000  -0.370648   0.207521   0.000000
   44  O  3 XX   -0.035788   0.000000  -0.026472  -0.027227   0.000000
   45  O  3 YY    0.018574   0.000000   0.018813   0.013783   0.000000
   46  O  3 ZZ    0.017214   0.000000   0.007659   0.013444   0.000000
   47  O  3 XY    0.000000   0.008454   0.000000   0.000000  -0.042264
   48  O  3 XZ   -0.016058   0.000000  -0.006257  -0.013940   0.000000
   49  O  3 YZ    0.000000  -0.002194   0.000000   0.000000  -0.008738

                     21         22         23         24         25
                    0.3666     0.4422     0.5375     0.5479     0.5946
                     A1         A1         B2         A1         B1  
    1  S  1  S   -0.012296  -0.046707   0.000000   0.004693   0.000000
    2  S  1  S   -0.060418   0.049966   0.000000  -0.057653   0.000000
    3  S  1  S   -0.207071  -0.438110   0.000000  -0.018339   0.000000
    4  S  1  S   -0.112494   2.901636   0.000000  -0.362674   0.000000
    5  S  1  X    0.000000   0.000000   0.000000   0.000000  -0.071166
    6  S  1  Y    0.000000   0.000000   0.004984   0.000000   0.000000
    7  S  1  Z   -0.300480  -0.055315   0.000000  -0.003239   0.000000
    8  S  1  X    0.000000   0.000000   0.000000   0.000000   0.756854
    9  S  1  Y    0.000000   0.000000  -0.021425   0.000000   0.000000
   10  S  1  Z    1.110490   0.328084   0.000000  -0.013675   0.000000
   11  S  1  X    0.000000   0.000000   0.000000   0.000000  -0.025552
   12  S  1  Y    0.000000   0.000000   0.234166   0.000000   0.000000
   13  S  1  Z   -0.981439  -0.032464   0.000000   0.237555   0.000000
   14  S  1 XX   -0.265561   0.643169   0.000000  -0.160004   0.000000
   15  S  1 YY    0.140039  -0.504516   0.000000  -0.741665   0.000000
   16  S  1 ZZ    0.125522  -0.138653   0.000000   0.901669   0.000000
   17  S  1 XY    0.000000   0.000000   0.000000   0.000000   0.000000
   18  S  1 XZ    0.000000   0.000000   0.000000   0.000000   0.487006
   19  S  1 YZ    0.000000   0.000000   0.975598   0.000000   0.000000
   20  O  2  S    0.005221   0.022682   0.000000   0.000678  -0.024635
   21  O  2  S   -0.036429   0.000442   0.000000  -0.050756  -0.065252
   22  O  2  S    0.261421  -1.356829   0.000000   0.206741   0.814075
   23  O  2  X   -0.098851   0.288045   0.000000  -0.143581  -0.273356
   24  O  2  Y    0.000000   0.000000  -0.173257   0.000000   0.000000
   25  O  2  Z   -0.040318  -0.060200   0.000000  -0.159359   0.187579
   26  O  2  X    0.067384  -0.873736   0.000000   0.182737   1.252621
   27  O  2  Y    0.000000   0.000000  -0.092097   0.000000   0.000000
   28  O  2  Z   -0.147541   0.331091   0.000000  -0.181911  -0.116096
   29  O  2 XX    0.018034  -0.037011   0.000000   0.007610   0.011291
   30  O  2 YY    0.000373   0.015956   0.000000  -0.059008  -0.010059
   31  O  2 ZZ   -0.018407   0.021055   0.000000   0.051398  -0.001232
   32  O  2 XY    0.000000   0.000000   0.013908   0.000000   0.000000
   33  O  2 XZ    0.032601   0.040007   0.000000   0.015594  -0.009974
   34  O  2 YZ    0.000000   0.000000   0.065220   0.000000   0.000000
   35  O  3  S    0.005221   0.022682   0.000000   0.000678   0.024635
   36  O  3  S   -0.036429   0.000442   0.000000  -0.050756   0.065252
   37  O  3  S    0.261421  -1.356829   0.000000   0.206741  -0.814075
   38  O  3  X    0.098851  -0.288045   0.000000   0.143581  -0.273356
   39  O  3  Y    0.000000   0.000000  -0.173257   0.000000   0.000000
   40  O  3  Z   -0.040318  -0.060200   0.000000  -0.159359  -0.187579
   41  O  3  X   -0.067384   0.873736   0.000000  -0.182737   1.252621
   42  O  3  Y    0.000000   0.000000  -0.092097   0.000000   0.000000
   43  O  3  Z   -0.147541   0.331091   0.000000  -0.181911   0.116096
   44  O  3 XX    0.018034  -0.037011   0.000000   0.007610  -0.011291
   45  O  3 YY    0.000373   0.015956   0.000000  -0.059008   0.010059
   46  O  3 ZZ   -0.018407   0.021055   0.000000   0.051398   0.001232
   47  O  3 XY    0.000000   0.000000  -0.013908   0.000000   0.000000
   48  O  3 XZ   -0.032601  -0.040007   0.000000  -0.015594  -0.009974
   49  O  3 YZ    0.000000   0.000000   0.065220   0.000000   0.000000

                     26         27         28         29         30
                    0.6451     0.6485     0.6567     0.8699     0.8868
                     A2         A1         B1         A1         B1  
    1  S  1  S    0.000000   0.111092   0.000000  -0.037416   0.000000
    2  S  1  S    0.000000   0.564241   0.000000  -0.189577   0.000000
    3  S  1  S    0.000000   1.924458   0.000000  -0.654562   0.000000
    4  S  1  S    0.000000  -0.234844   0.000000   0.267833   0.000000
    5  S  1  X    0.000000   0.000000   0.116965   0.000000  -0.195527
    6  S  1  Y    0.000000   0.000000   0.000000   0.000000   0.000000
    7  S  1  Z    0.000000  -0.040965   0.000000   0.060723   0.000000
    8  S  1  X    0.000000   0.000000  -0.578173   0.000000   0.942944
    9  S  1  Y    0.000000   0.000000   0.000000   0.000000   0.000000
   10  S  1  Z    0.000000   0.275478   0.000000  -0.163901   0.000000
   11  S  1  X    0.000000   0.000000   0.088026   0.000000  -0.708674
   12  S  1  Y    0.000000   0.000000   0.000000   0.000000   0.000000
   13  S  1  Z    0.000000   0.217171   0.000000   1.170786   0.000000
   14  S  1 XX    0.000000  -0.146766   0.000000  -0.114164   0.000000
   15  S  1 YY    0.000000   0.002326   0.000000  -0.063513   0.000000
   16  S  1 ZZ    0.000000   0.144441   0.000000   0.177677   0.000000
   17  S  1 XY    0.679700   0.000000   0.000000   0.000000   0.000000
   18  S  1 XZ    0.000000   0.000000   0.658188   0.000000  -0.536255
   19  S  1 YZ    0.000000   0.000000   0.000000   0.000000   0.000000
   20  O  2  S    0.000000   0.054783   0.029430  -0.001488  -0.021450
   21  O  2  S    0.000000  -0.084250  -0.053765  -0.005390   0.020216
   22  O  2  S    0.000000  -0.480670  -0.113126   0.048623   0.080278
   23  O  2  X    0.000000   0.145320  -0.010956   0.229224  -0.058116
   24  O  2  Y   -0.350480   0.000000   0.000000   0.000000   0.000000
   25  O  2  Z    0.000000   0.060701  -0.296351   0.553554  -0.583399
   26  O  2  X    0.000000  -1.046495  -0.154442  -0.024945   0.614502
   27  O  2  Y    0.919939   0.000000   0.000000   0.000000   0.000000
   28  O  2  Z    0.000000  -0.009304   0.905647  -1.158113   0.253675
   29  O  2 XX    0.000000   0.013067  -0.013228  -0.011094  -0.010081
   30  O  2 YY    0.000000  -0.006026  -0.005239   0.009305   0.038333
   31  O  2 ZZ    0.000000  -0.007041   0.018467   0.001789  -0.028252
   32  O  2 XY   -0.015554   0.000000   0.000000   0.000000   0.000000
   33  O  2 XZ    0.000000   0.005312  -0.026112   0.025087   0.039771
   34  O  2 YZ    0.008998   0.000000   0.000000   0.000000   0.000000
   35  O  3  S    0.000000   0.054783  -0.029430  -0.001488   0.021450
   36  O  3  S    0.000000  -0.084250   0.053765  -0.005390  -0.020216
   37  O  3  S    0.000000  -0.480670   0.113126   0.048623  -0.080278
   38  O  3  X    0.000000  -0.145320  -0.010956  -0.229224  -0.058116
   39  O  3  Y    0.350480   0.000000   0.000000   0.000000   0.000000
   40  O  3  Z    0.000000   0.060701   0.296351   0.553554   0.583399
   41  O  3  X    0.000000   1.046495  -0.154442   0.024945   0.614502
   42  O  3  Y   -0.919939   0.000000   0.000000   0.000000   0.000000
   43  O  3  Z    0.000000  -0.009304  -0.905647  -1.158113  -0.253675
   44  O  3 XX    0.000000   0.013067   0.013228  -0.011094   0.010081
   45  O  3 YY    0.000000  -0.006026   0.005239   0.009305  -0.038333
   46  O  3 ZZ    0.000000  -0.007041  -0.018467   0.001789   0.028252
   47  O  3 XY   -0.015554   0.000000   0.000000   0.000000   0.000000
   48  O  3 XZ    0.000000  -0.005312  -0.026112  -0.025087   0.039771
   49  O  3 YZ   -0.008998   0.000000   0.000000   0.000000   0.000000

                     31         32         33         34         35
                    0.8929     0.9103     1.6346     1.6742     1.7563
                     B2         A2         A1         B1         B1  
    1  S  1  S    0.000000   0.000000   0.039889   0.000000   0.000000
    2  S  1  S    0.000000   0.000000   0.152964   0.000000   0.000000
    3  S  1  S    0.000000   0.000000   0.642609   0.000000   0.000000
    4  S  1  S    0.000000   0.000000   2.770762   0.000000   0.000000
    5  S  1  X    0.000000   0.000000   0.000000  -0.319537   0.101393
    6  S  1  Y    0.041626   0.000000   0.000000   0.000000   0.000000
    7  S  1  Z    0.000000   0.000000  -0.058078   0.000000   0.000000
    8  S  1  X    0.000000   0.000000   0.000000   1.508622  -0.131158
    9  S  1  Y   -0.057592   0.000000   0.000000   0.000000   0.000000
   10  S  1  Z    0.000000   0.000000   0.369526   0.000000   0.000000
   11  S  1  X    0.000000   0.000000   0.000000   0.943931   1.545435
   12  S  1  Y    1.218536   0.000000   0.000000   0.000000   0.000000
   13  S  1  Z    0.000000   0.000000   0.641471   0.000000   0.000000
   14  S  1 XX    0.000000   0.000000   0.669588   0.000000   0.000000
   15  S  1 YY    0.000000   0.000000  -0.392736   0.000000   0.000000
   16  S  1 ZZ    0.000000   0.000000  -0.276852   0.000000   0.000000
   17  S  1 XY    0.000000   0.887598   0.000000   0.000000   0.000000
   18  S  1 XZ    0.000000   0.000000   0.000000   0.539730  -0.087112
   19  S  1 YZ    0.154933   0.000000   0.000000   0.000000   0.000000
   20  O  2  S    0.000000   0.000000   0.006638  -0.026566   0.002161
   21  O  2  S    0.000000   0.000000   0.923203  -0.134785  -1.338916
   22  O  2  S    0.000000   0.000000  -2.719744   1.633231   2.246778
   23  O  2  X    0.000000   0.000000  -0.375956   0.684723  -0.085101
   24  O  2  Y    0.615661   0.593159   0.000000   0.000000   0.000000
   25  O  2  Z    0.000000   0.000000   0.226848   0.004249   0.022780
   26  O  2  X    0.000000   0.000000  -0.718073   0.085296   0.193022
   27  O  2  Y   -1.207047  -0.117954   0.000000   0.000000   0.000000
   28  O  2  Z    0.000000   0.000000  -0.092117  -0.181861  -0.232214
   29  O  2 XX    0.000000   0.000000   0.213088  -0.250611   0.040496
   30  O  2 YY    0.000000   0.000000  -0.122304   0.019072   0.095634
   31  O  2 ZZ    0.000000   0.000000  -0.090784   0.231539  -0.136131
   32  O  2 XY    0.043326  -0.065147   0.000000   0.000000   0.000000
   33  O  2 XZ    0.000000   0.000000  -0.039501   0.034528   0.165094
   34  O  2 YZ   -0.008109   0.055653   0.000000   0.000000   0.000000
   35  O  3  S    0.000000   0.000000   0.006638   0.026566  -0.002161
   36  O  3  S    0.000000   0.000000   0.923203   0.134785   1.338916
   37  O  3  S    0.000000   0.000000  -2.719744  -1.633231  -2.246778
   38  O  3  X    0.000000   0.000000   0.375956   0.684723  -0.085101
   39  O  3  Y    0.615661  -0.593159   0.000000   0.000000   0.000000
   40  O  3  Z    0.000000   0.000000   0.226848  -0.004249  -0.022780
   41  O  3  X    0.000000   0.000000   0.718073   0.085296   0.193022
   42  O  3  Y   -1.207047   0.117954   0.000000   0.000000   0.000000
   43  O  3  Z    0.000000   0.000000  -0.092117   0.181861   0.232214
   44  O  3 XX    0.000000   0.000000   0.213088   0.250611  -0.040496
   45  O  3 YY    0.000000   0.000000  -0.122304  -0.019072  -0.095634
   46  O  3 ZZ    0.000000   0.000000  -0.090784  -0.231539   0.136131
   47  O  3 XY   -0.043326  -0.065147   0.000000   0.000000   0.000000
   48  O  3 XZ    0.000000   0.000000   0.039501   0.034528   0.165094
   49  O  3 YZ   -0.008109  -0.055653   0.000000   0.000000   0.000000

                     36         37         38         39         40
                    1.9601     1.9686     2.0011     2.1102     2.2080
                     A2         B1         A1         B2         A1  
    1  S  1  S    0.000000   0.000000   0.026647   0.000000  -0.014176
    2  S  1  S    0.000000   0.000000  -0.121818   0.000000   0.149957
    3  S  1  S    0.000000   0.000000   0.177119   0.000000   0.014621
    4  S  1  S    0.000000   0.000000  -0.102842   0.000000   0.011138
    5  S  1  X    0.000000  -0.042456   0.000000   0.000000   0.000000
    6  S  1  Y    0.000000   0.000000   0.000000  -0.034309   0.000000
    7  S  1  Z    0.000000   0.000000  -0.091883   0.000000   0.059181
    8  S  1  X    0.000000   0.125115   0.000000   0.000000   0.000000
    9  S  1  Y    0.000000   0.000000   0.000000   0.235039   0.000000
   10  S  1  Z    0.000000   0.000000   0.477468   0.000000  -0.268233
   11  S  1  X    0.000000   0.047128   0.000000   0.000000   0.000000
   12  S  1  Y    0.000000   0.000000   0.000000  -0.005792   0.000000
   13  S  1  Z    0.000000   0.000000  -0.097486   0.000000  -0.013078
   14  S  1 XX    0.000000   0.000000   0.715377   0.000000  -0.526160
   15  S  1 YY    0.000000   0.000000  -0.292759   0.000000   0.584627
   16  S  1 ZZ    0.000000   0.000000  -0.422618   0.000000  -0.058468
   17  S  1 XY    0.057593   0.000000   0.000000   0.000000   0.000000
   18  S  1 XZ    0.000000  -0.012423   0.000000   0.000000   0.000000
   19  S  1 YZ    0.000000   0.000000   0.000000  -0.260011   0.000000
   20  O  2  S    0.000000  -0.003513  -0.005432   0.000000   0.007502
   21  O  2  S    0.000000   0.067071  -0.707020   0.000000   0.513287
   22  O  2  S    0.000000   0.007734   0.317813   0.000000  -0.238180
   23  O  2  X    0.000000   0.080226  -0.350653   0.000000   0.260491
   24  O  2  Y   -0.017995   0.000000   0.000000   0.042154   0.000000
   25  O  2  Z    0.000000   0.023182   0.211962   0.000000  -0.123014
   26  O  2  X    0.000000  -0.067710   0.181255   0.000000  -0.173756
   27  O  2  Y    0.045729   0.000000   0.000000  -0.079080   0.000000
   28  O  2  Z    0.000000  -0.056845  -0.112692   0.000000   0.124671
   29  O  2 XX    0.000000  -0.176854  -0.055166   0.000000   0.004528
   30  O  2 YY    0.000000   0.613996  -0.373135   0.000000  -0.470926
   31  O  2 ZZ    0.000000  -0.437142   0.428301   0.000000   0.466398
   32  O  2 XY    0.330654   0.000000   0.000000  -0.084822   0.000000
   33  O  2 XZ    0.000000  -0.315612  -0.265814   0.000000   0.384004
   34  O  2 YZ    0.627302   0.000000   0.000000   0.721024   0.000000
   35  O  3  S    0.000000   0.003513  -0.005432   0.000000   0.007502
   36  O  3  S    0.000000  -0.067071  -0.707020   0.000000   0.513287
   37  O  3  S    0.000000  -0.007734   0.317813   0.000000  -0.238180
   38  O  3  X    0.000000   0.080226   0.350653   0.000000  -0.260491
   39  O  3  Y    0.017995   0.000000   0.000000   0.042154   0.000000
   40  O  3  Z    0.000000  -0.023182   0.211962   0.000000  -0.123014
   41  O  3  X    0.000000  -0.067710  -0.181255   0.000000   0.173756
   42  O  3  Y   -0.045729   0.000000   0.000000  -0.079080   0.000000
   43  O  3  Z    0.000000   0.056845  -0.112692   0.000000   0.124671
   44  O  3 XX    0.000000   0.176854  -0.055166   0.000000   0.004528
   45  O  3 YY    0.000000  -0.613996  -0.373135   0.000000  -0.470926
   46  O  3 ZZ    0.000000   0.437142   0.428301   0.000000   0.466398
   47  O  3 XY    0.330654   0.000000   0.000000   0.084822   0.000000
   48  O  3 XZ    0.000000  -0.315612   0.265814   0.000000  -0.384004
   49  O  3 YZ   -0.627302   0.000000   0.000000   0.721024   0.000000

                     41         42         43         44         45
                    2.4353     2.7289     2.7694     2.8512     2.9314
                     B2         A1         B1         A2         B1  
    1  S  1  S    0.000000  -0.076275   0.000000   0.000000   0.000000
    2  S  1  S    0.000000  -0.902872   0.000000   0.000000   0.000000
    3  S  1  S    0.000000  -2.133480   0.000000   0.000000   0.000000
    4  S  1  S    0.000000  -1.702670   0.000000   0.000000   0.000000
    5  S  1  X    0.000000   0.000000  -0.002129   0.000000  -0.154822
    6  S  1  Y    0.100754   0.000000   0.000000   0.000000   0.000000
    7  S  1  Z    0.000000   0.060761   0.000000   0.000000   0.000000
    8  S  1  X    0.000000   0.000000   1.223259   0.000000   2.398256
    9  S  1  Y   -0.689673   0.000000   0.000000   0.000000   0.000000
   10  S  1  Z    0.000000  -0.881834   0.000000   0.000000   0.000000
   11  S  1  X    0.000000   0.000000   0.334745   0.000000   0.189710
   12  S  1  Y   -0.187834   0.000000   0.000000   0.000000   0.000000
   13  S  1  Z    0.000000  -0.277375   0.000000   0.000000   0.000000
   14  S  1 XX    0.000000  -0.457977   0.000000   0.000000   0.000000
   15  S  1 YY    0.000000   0.382104   0.000000   0.000000   0.000000
   16  S  1 ZZ    0.000000   0.075873   0.000000   0.000000   0.000000
   17  S  1 XY    0.000000   0.000000   0.000000   1.220750   0.000000
   18  S  1 XZ    0.000000   0.000000  -0.769345   0.000000   1.150588
   19  S  1 YZ   -0.354909   0.000000   0.000000   0.000000   0.000000
   20  O  2  S    0.000000  -0.036841  -0.034195   0.000000  -0.023993
   21  O  2  S    0.000000  -0.578356  -0.582522   0.000000   0.091056
   22  O  2  S    0.000000   2.347970   1.409870   0.000000   1.698127
   23  O  2  X    0.000000   0.306388   0.032064   0.000000   0.608909
   24  O  2  Y   -0.045997   0.000000   0.000000   0.197014   0.000000
   25  O  2  Z    0.000000  -0.099505  -0.120717   0.000000  -0.021484
   26  O  2  X    0.000000   1.143394   0.588181   0.000000   0.944287
   27  O  2  Y    0.378425   0.000000   0.000000   0.425099   0.000000
   28  O  2  Z    0.000000  -0.092541  -0.503077   0.000000   0.013407
   29  O  2 XX    0.000000   0.905711   0.183140   0.000000   0.916549
   30  O  2 YY    0.000000  -0.482946  -0.373296   0.000000  -0.291544
   31  O  2 ZZ    0.000000  -0.422765   0.190156   0.000000  -0.625006
   32  O  2 XY    0.810817   0.000000   0.000000   0.865454   0.000000
   33  O  2 XZ    0.000000  -0.064239  -0.815085   0.000000   0.062015
   34  O  2 YZ    0.069843   0.000000   0.000000  -0.399468   0.000000
   35  O  3  S    0.000000  -0.036841   0.034195   0.000000   0.023993
   36  O  3  S    0.000000  -0.578356   0.582522   0.000000  -0.091056
   37  O  3  S    0.000000   2.347970  -1.409870   0.000000  -1.698127
   38  O  3  X    0.000000  -0.306388   0.032064   0.000000   0.608909
   39  O  3  Y   -0.045997   0.000000   0.000000  -0.197014   0.000000
   40  O  3  Z    0.000000  -0.099505   0.120717   0.000000   0.021484
   41  O  3  X    0.000000  -1.143394   0.588181   0.000000   0.944287
   42  O  3  Y    0.378425   0.000000   0.000000  -0.425099   0.000000
   43  O  3  Z    0.000000  -0.092541   0.503077   0.000000  -0.013407
   44  O  3 XX    0.000000   0.905711  -0.183140   0.000000  -0.916549
   45  O  3 YY    0.000000  -0.482946   0.373296   0.000000   0.291544
   46  O  3 ZZ    0.000000  -0.422765  -0.190156   0.000000   0.625006
   47  O  3 XY   -0.810817   0.000000   0.000000   0.865454   0.000000
   48  O  3 XZ    0.000000   0.064239  -0.815085   0.000000   0.062015
   49  O  3 YZ    0.069843   0.000000   0.000000   0.399468   0.000000

                     46
                    2.9899
                     A1  
    1  S  1  S    0.072055
    2  S  1  S    0.353379
    3  S  1  S    1.384860
    4  S  1  S    0.824548
    5  S  1  X    0.000000
    6  S  1  Y    0.000000
    7  S  1  Z    0.031078
    8  S  1  X    0.000000
    9  S  1  Y    0.000000
   10  S  1  Z   -0.097778
   11  S  1  X    0.000000
   12  S  1  Y    0.000000
   13  S  1  Z   -0.241753
   14  S  1 XX    1.771554
   15  S  1 YY   -0.733878
   16  S  1 ZZ   -1.037676
   17  S  1 XY    0.000000
   18  S  1 XZ    0.000000
   19  S  1 YZ    0.000000
   20  O  2  S   -0.018110
   21  O  2  S   -0.680133
   22  O  2  S   -0.850866
   23  O  2  X   -0.630499
   24  O  2  Y    0.000000
   25  O  2  Z    0.289647
   26  O  2  X   -0.237536
   27  O  2  Y    0.000000
   28  O  2  Z    0.511518
   29  O  2 XX   -0.046785
   30  O  2 YY    0.173436
   31  O  2 ZZ   -0.126650
   32  O  2 XY    0.000000
   33  O  2 XZ    0.780617
   34  O  2 YZ    0.000000
   35  O  3  S   -0.018110
   36  O  3  S   -0.680133
   37  O  3  S   -0.850866
   38  O  3  X    0.630499
   39  O  3  Y    0.000000
   40  O  3  Z    0.289647
   41  O  3  X    0.237536
   42  O  3  Y    0.000000
   43  O  3  Z    0.511518
   44  O  3 XX   -0.046785
   45  O  3 YY    0.173436
   46  O  3 ZZ   -0.126650
   47  O  3 XY    0.000000
   48  O  3 XZ   -0.780617
   49  O  3 YZ    0.000000
 ...... END OF RHF CALCULATION ......
 STEP CPU TIME =     4.47 TOTAL CPU TIME =        4.7 (    0.1 MIN)
 TOTAL WALL CLOCK TIME=        4.6 SECONDS, CPU UTILIZATION IS 100.00%

     ---------------------------------------------------------------------
     PROPERTIES FOR THE PBE      DFT FUNCTIONAL (RHF  TYPE) DENSITY MATRIX
     ---------------------------------------------------------------------

          -----------------
          ENERGY COMPONENTS
          -----------------

         WAVEFUNCTION NORMALIZATION =       1.0000000000

                ONE ELECTRON ENERGY =   -1029.7269850564
                TWO ELECTRON ENERGY =     343.1694565512
           NUCLEAR REPULSION ENERGY =     139.0912754989
                                      ------------------
                       TOTAL ENERGY =    -547.4662530064

 ELECTRON-ELECTRON POTENTIAL ENERGY =     343.1694565512
  NUCLEUS-ELECTRON POTENTIAL ENERGY =   -1582.6868460197
   NUCLEUS-NUCLEUS POTENTIAL ENERGY =     139.0912754989
                                      ------------------
             TOTAL POTENTIAL ENERGY =   -1100.4261139697
               TOTAL KINETIC ENERGY =     552.9598609633
                 VIRIAL RATIO (V/T) =       1.9900650873

          ---------------------------------------
          MULLIKEN AND LOWDIN POPULATION ANALYSES
          ---------------------------------------

     ATOMIC MULLIKEN POPULATION IN EACH MOLECULAR ORBITAL

                      1          2          3          4          5

                  2.000000   2.000000   2.000000   2.000000   2.000000

    1             2.000133  -0.000094   0.000292   2.004116   1.993167
    2            -0.000067   1.000047   0.999854  -0.002058   0.003416
    3            -0.000067   1.000047   0.999854  -0.002058   0.003416

                      6          7          8          9         10

                  2.000000   2.000000   2.000000   2.000000   2.000000

    1             1.999607   1.999214   0.711478   0.622578   0.814630
    2             0.000197   0.000393   0.644261   0.688711   0.592685
    3             0.000197   0.000393   0.644261   0.688711   0.592685

                     11         12         13         14         15

                  2.000000   2.000000   2.000000   2.000000   2.000000

    1             0.814248   0.192964   0.197630   0.295388   0.263800
    2             0.592876   0.903518   0.901185   0.852306   0.868100
    3             0.592876   0.903518   0.901185   0.852306   0.868100

                     16

                  2.000000

    1             1.902047
    2             0.048976
    3             0.048976

               ----- POPULATIONS IN EACH AO -----
                             MULLIKEN      LOWDIN
              1  S  1  S      2.00028     1.99586
              2  S  1  S      2.01247     1.88611
              3  S  1  S      0.76421     0.45883
              4  S  1  S      1.39411     0.72300
              5  S  1  X      1.99715     1.95794
              6  S  1  Y      1.99576     1.95576
              7  S  1  Z      1.99664     1.96270
              8  S  1  X      0.72644     0.61964
              9  S  1  Y      0.64913     0.57134
             10  S  1  Z      0.78145     0.72498
             11  S  1  X      0.06362     0.25398
             12  S  1  Y      0.15315     0.24440
             13  S  1  Z      0.21156     0.31897
             14  S  1 XX      0.14573     0.46241
             15  S  1 YY      0.31764     0.29657
             16  S  1 ZZ      0.29539     0.33759
             17  S  1 XY      0.29026     0.38168
             18  S  1 XZ      0.01619     0.37490
             19  S  1 YZ      0.00000     0.01649
             20  O  2  S      1.99869     1.97709
             21  O  2  S      0.80627     0.61705
             22  O  2  S      0.79178     0.47003
             23  O  2  X      1.14433     1.10677
             24  O  2  Y      0.95288     0.88334
             25  O  2  Z      1.07104     1.01540
             26  O  2  X      0.33649     0.49744
             27  O  2  Y      0.47537     0.50947
             28  O  2  Z      0.47172     0.52781
             29  O  2 XX      0.00530     0.22765
             30  O  2 YY      0.01020     0.17386
             31  O  2 ZZ      0.01628     0.17346
             32  O  2 XY      0.01339     0.02136
             33  O  2 XZ      0.00066     0.02669
             34  O  2 YZ      0.00000     0.00100
             35  O  3  S      1.99869     1.97709
             36  O  3  S      0.80627     0.61705
             37  O  3  S      0.79178     0.47003
             38  O  3  X      1.14433     1.10677
             39  O  3  Y      0.95288     0.88334
             40  O  3  Z      1.07104     1.01540
             41  O  3  X      0.33649     0.49744
             42  O  3  Y      0.47537     0.50947
             43  O  3  Z      0.47172     0.52781
             44  O  3 XX      0.00530     0.22765
             45  O  3 YY      0.01020     0.17386
             46  O  3 ZZ      0.01628     0.17346
             47  O  3 XY      0.01339     0.02136
             48  O  3 XZ      0.00066     0.02669
             49  O  3 YZ      0.00000     0.00100

          ----- MULLIKEN ATOMIC OVERLAP POPULATIONS -----
          (OFF-DIAGONAL ELEMENTS NEED TO BE MULTIPLIED BY 2)

             1           2           3

    1   15.9492103
    2   -0.0690068   8.0541421
    3   -0.0690068   0.1092662   8.0541421

          TOTAL MULLIKEN AND LOWDIN ATOMIC POPULATIONS
       ATOM         MULL.POP.    CHARGE          LOW.POP.     CHARGE
    1 S            15.811197    0.188803        15.543151    0.456849
    2 O             8.094402   -0.094402         8.228424   -0.228424
    3 O             8.094402   -0.094402         8.228424   -0.228424

          MULLIKEN SPHERICAL HARMONIC POPULATIONS
       ATOM           S       P       D      F      G      H      I    TOTAL
    1 S             6.17    8.57    1.07   0.00   0.00   0.00   0.00   15.81
    2 O             3.60    4.45    0.05   0.00   0.00   0.00   0.00    8.09
    3 O             3.60    4.45    0.05   0.00   0.00   0.00   0.00    8.09

          -------------------------------
          BOND ORDER AND VALENCE ANALYSIS     BOND ORDER THRESHOLD=0.050
          -------------------------------

                   BOND                       BOND                       BOND
  ATOM PAIR DIST  ORDER      ATOM PAIR DIST  ORDER      ATOM PAIR DIST  ORDER
    1   2  1.100  2.071        1   3  1.100  2.071        2   3  2.125  0.065

                       TOTAL       BONDED        FREE
      ATOM            VALENCE     VALENCE     VALENCE
    1 S                 4.143       4.143       0.000
    2 O                 2.136       2.136       0.000
    3 O                 2.136       2.136       0.000

          ---------------------
          ELECTROSTATIC MOMENTS
          ---------------------

 POINT   1           X           Y           Z (BOHR)    CHARGE
                 0.000000    0.000000    0.000000        0.00 (A.U.)
         DX          DY          DZ         /D/  (DEBYE)
     0.000000    0.000000    0.766002    0.766002
 ...... END OF PROPERTY EVALUATION ......
 STEP CPU TIME =     0.00 TOTAL CPU TIME =        4.7 (    0.1 MIN)
 TOTAL WALL CLOCK TIME=        4.7 SECONDS, CPU UTILIZATION IS  99.79%
               580000  WORDS OF DYNAMIC MEMORY USED
 EXECUTION OF GAMESS TERMINATED NORMALLY Thu Feb 26 00:12:04 2015
 DDI: 263624 bytes (0.3 MB / 0 MWords) used by master data server.

 ----------------------------------------
 CPU timing information for all processes
 ========================================
 0: 4.650 + 0.17 = 4.668
 ----------------------------------------
 ddikick.x: exited gracefully.
----- accounting info -----
Files used on the master node dftfe.crc.nd.edu were:
-rw-r--r-- 1 pmehta1 campus   37475 Feb 26 00:12 /tmp/gamess.dat
-rw-r--r-- 1 pmehta1 campus     142 Feb 26 00:11 /tmp/gamess.F05
-rw-r--r-- 1 pmehta1 campus 2340312 Feb 26 00:11 /tmp/gamess.F08
-rw-r--r-- 1 pmehta1 campus 1220440 Feb 26 00:12 /tmp/gamess.F10
Thu Feb 26 00:12:07 EST 2015
0.241u 0.183s 0:08.08 5.1%	0+0k 0+112io 0pf+0w
