----- GAMESS execution script 'rungms' -----
This job is running on host dftfe.crc.nd.edu
under operating system Linux at Thu Feb 26 00:12:27 EST 2015
Available scratch disk space (Kbyte units) at beginning of the job is
Filesystem     1K-blocks     Used Available Use% Mounted on
/dev/sda2      147771864 22810008 117455424  17% /
GAMESS temporary binary files will be written to /tmp
GAMESS supplementary output files will be written to /tmp
Copying input file gamess.inp to your run's scratch directory...

 Distributed Data Interface kickoff program.
 Initiating 1 compute processes on 1 nodes to run the following command:
 /opt/crc/gamess/2012R1/gamess/gamess.00.x gamess 

          ******************************************************
          *         GAMESS VERSION =  1 MAY 2012 (R1)          *
          *             FROM IOWA STATE UNIVERSITY             *
          * M.W.SCHMIDT, K.K.BALDRIDGE, J.A.BOATZ, S.T.ELBERT, *
          *   M.S.GORDON, J.H.JENSEN, S.KOSEKI, N.MATSUNAGA,   *
          *          K.A.NGUYEN, S.J.SU, T.L.WINDUS,           *
          *       TOGETHER WITH M.DUPUIS, J.A.MONTGOMERY       *
          *         J.COMPUT.CHEM.  14, 1347-1363(1993)        *
          **************** 64 BIT LINUX VERSION ****************

  SINCE 1993, STUDENTS AND POSTDOCS WORKING AT IOWA STATE UNIVERSITY
  AND ALSO IN THEIR VARIOUS JOBS AFTER LEAVING ISU HAVE MADE IMPORTANT
  CONTRIBUTIONS TO THE CODE:
     IVANA ADAMOVIC, CHRISTINE AIKENS, YURI ALEXEEV, POOJA ARORA,
     ANDREY ASADCHEV, ROB BELL, PRADIPTA BANDYOPADHYAY, JONATHAN BENTZ,
     BRETT BODE, GALINA CHABAN, WEI CHEN, CHEOL HO CHOI, PAUL DAY,
     ALBERT DEFUSCO, TIM DUDLEY, DMITRI FEDOROV, GRAHAM FLETCHER,
     MARK FREITAG, KURT GLAESEMANN, DAN KEMP, GRANT MERRILL,
     NORIYUKI MINEZAWA, JONATHAN MULLIN, TAKESHI NAGATA,
     SEAN NEDD, HEATHER NETZLOFF, BOSILJKA NJEGIC, RYAN OLSON, MIKE PAK,
     JIM SHOEMAKER, LYUDMILA SLIPCHENKO, SAROM SOK, JIE SONG,
     TETSUYA TAKETSUGU, SIMON WEBB, SOOHAENG YOO, FEDERICO ZAHARIEV

  ADDITIONAL CODE HAS BEEN PROVIDED BY COLLABORATORS IN OTHER GROUPS:
     IOWA STATE UNIVERSITY:
          JOE IVANIC, LAIMUTIS BYTAUTAS, KLAUS RUEDENBERG
     UNIVERSITY OF TOKYO: KIMIHIKO HIRAO, TAKAHITO NAKAJIMA,
          TAKAO TSUNEDA, MUNEAKI KAMIYA, SUSUMU YANAGISAWA,
          KIYOSHI YAGI, MAHITO CHIBA, SEIKEN TOKURA, NAOAKI KAWAKAMI
     UNIVERSITY OF AARHUS: FRANK JENSEN
     UNIVERSITY OF IOWA: VISVALDAS KAIRYS, HUI LI
     NATIONAL INST. OF STANDARDS AND TECHNOLOGY: WALT STEVENS, DAVID GARMER
     UNIVERSITY OF PISA: BENEDETTA MENNUCCI, JACOPO TOMASI
     UNIVERSITY OF MEMPHIS: HENRY KURTZ, PRAKASHAN KORAMBATH
     UNIVERSITY OF ALBERTA: TOBY ZENG, MARIUSZ KLOBUKOWSKI
     UNIVERSITY OF NEW ENGLAND: MARK SPACKMAN
     MIE UNIVERSITY: HIROAKI UMEDA
     MICHIGAN STATE UNIVERSITY:
          KAROL KOWALSKI, MARTA WLOCH, JEFFREY GOUR, JESSE LUTZ, PIOTR PIECUCH
     UNIVERSITY OF SILESIA: MONIKA MUSIAL, STANISLAW KUCHARSKI
     FACULTES UNIVERSITAIRES NOTRE-DAME DE LA PAIX:
          OLIVIER QUINET, BENOIT CHAMPAGNE
     UNIVERSITY OF CALIFORNIA - SANTA BARBARA: BERNARD KIRTMAN
     INSTITUTE FOR MOLECULAR SCIENCE:
          KAZUYA ISHIMURA, MICHIO KATOUDA, AND SHIGERU NAGASE
     UNIVERSITY OF NOTRE DAME: DAN CHIPMAN
     KYUSHU UNIVERSITY:
          HARUYUKI NAKANO,
          FENG LONG GU, JACEK KORCHOWIEC, MARCIN MAKOWSKI, AND YURIKO AOKI,
          HIROTOSHI MORI AND EISAKU MIYOSHI
     PENNSYLVANIA STATE UNIVERSITY:
          TZVETELIN IORDANOV, CHET SWALINA, JONATHAN SKONE,
          SHARON HAMMES-SCHIFFER
     WASEDA UNIVERSITY:
          MASATO KOBAYASHI, TOMOKO AKAMA, TSUGUKI TOUMA,
          TAKESHI YOSHIKAWA, YASUHIRO IKABATA, HIROMI NAKAI
     UNIVERSITY OF NEBRASKA:
          PEIFENG SU, DEJUN SI, NANDUN THELLAMUREGE, YALI WANG, HUI LI
     UNIVERSITY OF ZURICH:
          ROBERTO PEVERATI, KIM BALDRIDGE
     N. COPERNICUS UNIVERSITY AND JACKSON STATE UNIVERSITY:
          MARIA BARYSZ

 EXECUTION OF GAMESS BEGUN Thu Feb 26 00:12:27 2015

            ECHO OF THE FIRST FEW INPUT CARDS -
 INPUT CARD> $BASIS GBASIS=PC1 $END                                                         
 INPUT CARD> $CONTRL COORD=ZMT ISPHER=1 RUNTYP=ENERGY DFTTYP=PBE $END                       
 INPUT CARD>                                                                                
 INPUT CARD> $DATA                                                                          
 INPUT CARD>Title                                                                           
 INPUT CARD>Cnv 2                                                                           
 INPUT CARD>                                                                                
 INPUT CARD>S                                                                               
 INPUT CARD>O 1 1.20                                                                        
 INPUT CARD>O 1 1.20 2 90.0                                                                 
 INPUT CARD> $END                                                                           
    1000000 WORDS OF MEMORY AVAILABLE

     BASIS OPTIONS
     -------------
     GBASIS=PC1          IGAUSS=       0      POLAR=NONE    
     NDFUNC=       0     NFFUNC=       0     DIFFSP=       F
     NPFUNC=       0      DIFFS=       F     BASNAM=        


     RUN TITLE
     ---------
 Title                                                                           

 THE POINT GROUP OF THE MOLECULE IS CNV     
 THE ORDER OF THE PRINCIPAL AXIS IS     2

 YOUR FULLY SUBSTITUTED Z-MATRIX IS
 S   
 O      1   1.2000000
 O      1   1.2000000  2   90.0000

 THE MOMENTS OF INERTIA ARE (AMU-ANGSTROM**2)
 IXX=    11.513   IYY=    23.033   IZZ=    34.546

 ATOM      ATOMIC                      COORDINATES (BOHR)
           CHARGE         X                   Y                   Z
 S          16.0     0.0000000000        0.0000000000       -0.8019653272
 O           8.0    -1.6034856726        0.0000000000        0.8015203455
 O           8.0     1.6034856726        0.0000000000        0.8015203455

          INTERNUCLEAR DISTANCES (ANGS.)
          ------------------------------

                1 S          2 O          3 O     

   1 S       0.0000000    1.2000000 *  1.2000000 *
   2 O       1.2000000 *  0.0000000    1.6970563 *
   3 O       1.2000000 *  1.6970563 *  0.0000000  

  * ... LESS THAN  3.000


     ATOMIC BASIS SET
     ----------------
 THE CONTRACTED PRIMITIVE FUNCTIONS HAVE BEEN UNNORMALIZED
 THE CONTRACTED BASIS FUNCTIONS ARE NOW NORMALIZED TO UNITY

  SHELL TYPE  PRIMITIVE        EXPONENT          CONTRACTION COEFFICIENT(S)

 S         

      1   S       1         55510.0000000    0.000587229760
      1   S       2          8326.7000000    0.004532413947
      1   S       3          1895.6000000    0.023265261648
      1   S       4           536.7700000    0.089696133027
      1   S       5           174.6700000    0.254098332277
      1   S       6            62.5780000    0.438665087637
      1   S       7            23.5730000    0.314547135094
      1   S       8             5.8908000    0.032727897102

      2   S       9          8326.7000000   -0.000019755715
      2   S      10          1895.6000000   -0.000043822381
      2   S      11           536.7700000   -0.001730264906
      2   S      12           174.6700000   -0.009381263460
      2   S      13            62.5780000   -0.064050766303
      2   S      14            23.5730000   -0.082478179196
      2   S      15             5.8908000    0.478342956889
      2   S      16             2.1852000    0.626896670208

      3   S      17          1895.6000000    0.000016227260
      3   S      18           536.7700000    0.000191135619
      3   S      19           174.6700000    0.001952069674
      3   S      20            62.5780000    0.010578701087
      3   S      21            23.5730000    0.022164934551
      3   S      22             5.8908000   -0.184968323118
      3   S      23             2.1852000   -0.480920750976
      3   S      24             0.4528200    1.243822243872

      4   S      25             0.1620200    1.000000000000

      5   P      26           395.4500000    0.004642761329
      5   P      27            92.8340000    0.036023396489
      5   P      28            29.2660000    0.149058869978
      5   P      29            10.5950000    0.360033266263
      5   P      30             4.0272000    0.455756476221
      5   P      31             1.5484000    0.206167664178

      6   P      32            92.8340000    0.000169901442
      6   P      33            29.2660000   -0.002541839934
      6   P      34            10.5950000   -0.007867614595
      6   P      35             4.0272000   -0.037231009184
      6   P      36             1.5484000    0.161417246830
      6   P      37             0.4613400    0.902230419976

      7   P      38             0.1313100    1.000000000000

      8   D      39             0.5500000    1.000000000000

 O         

     15   S      40          2306.7000000    0.005424388755
     15   S      41           347.1500000    0.040474749465
     15   S      42            78.8900000    0.180219634554
     15   S      43            21.8760000    0.462370311787
     15   S      44             6.6646000    0.454888396263

     16   S      45           347.1500000   -0.000655003786
     16   S      46            78.8900000   -0.005362052952
     16   S      47            21.8760000   -0.074902158894
     16   S      48             6.6646000   -0.181442579655
     16   S      49             1.0669000    1.102006874042

     17   S      50             0.3070000    1.000000000000

     18   P      51            17.0220000    0.068979967443
     18   P      52             3.6838000    0.351985516325
     18   P      53             0.9923400    0.724036547822

     19   P      54             0.2448700    1.000000000000

     20   D      55             1.0000000    1.000000000000

 TOTAL NUMBER OF BASIS SET SHELLS             =   20
 NUMBER OF CARTESIAN GAUSSIAN BASIS FUNCTIONS =   49
 NOTE: THIS RUN WILL RESTRICT THE MO VARIATION SPACE TO SPHERICAL HARMONICS.
 THE NUMBER OF ORBITALS KEPT IN THE VARIATIONAL SPACE WILL BE PRINTED LATER.
 NUMBER OF ELECTRONS                          =   32
 CHARGE OF MOLECULE                           =    0
 SPIN MULTIPLICITY                            =    1
 NUMBER OF OCCUPIED ORBITALS (ALPHA)          =   16
 NUMBER OF OCCUPIED ORBITALS (BETA )          =   16
 TOTAL NUMBER OF ATOMS                        =    3
 THE NUCLEAR REPULSION ENERGY IS      132.8476703119

     LEBEDEV GRID-BASED DFT OPTIONS
     ------------------------------
     DFTTYP=PBE     
     NRAD  =      96     NLEB  =     302
     NRAD0 =      24     NLEB0 =     110
     SWOFF =    5.00E-03 (PURE SCF -> DFT)
     SWITCH=    3.00E-04 (COARSE -> TIGHT GRID)
     THRESH=    0.00E+00 GTHRE=    1.00E+00

 GRIMME'S EMPIRICAL DISPERSION CORRECTION= F

     $CONTRL OPTIONS
     ---------------
 SCFTYP=RHF          RUNTYP=ENERGY       EXETYP=RUN     
 MPLEVL=       0     CITYP =NONE         CCTYP =NONE         VBTYP =NONE    
 DFTTYP=PBE          TDDFT =NONE    
 MULT  =       1     ICHARG=       0     NZVAR =       0     COORD =ZMT     
 PP    =NONE         RELWFN=NONE         LOCAL =NONE         NUMGRD=       F
 ISPHER=       1     NOSYM =       0     MAXIT =      30     UNITS =ANGS    
 PLTORB=       F     MOLPLT=       F     AIMPAC=       F     FRIEND=        
 NPRINT=       7     IREST =       0     GEOM  =INPUT   
 NORMF =       0     NORMP =       0     ITOL  =      20     ICUT  =       9
 INTTYP=BEST         GRDTYP=BEST         QMTTOL= 1.0E-06

     $SYSTEM OPTIONS
     ---------------
  REPLICATED MEMORY=     1000000 WORDS (ON EVERY NODE).
 DISTRIBUTED MEMDDI=           0 MILLION WORDS IN AGGREGATE,
 MEMDDI DISTRIBUTED OVER   1 PROCESSORS IS           0 WORDS/PROCESSOR.
 TOTAL MEMORY REQUESTED ON EACH PROCESSOR=     1000000 WORDS.
 TIMLIM=      525600.00 MINUTES, OR     365.0 DAYS.
 PARALL= F  BALTYP=  DLB     KDIAG=    0  COREFL= F
 MXSEQ2=     300 MXSEQ3=     150

          ----------------
          PROPERTIES INPUT
          ----------------

     MOMENTS            FIELD           POTENTIAL          DENSITY
 IEMOM =       1   IEFLD =       0   IEPOT =       0   IEDEN =       0
 WHERE =COMASS     WHERE =NUCLEI     WHERE =NUCLEI     WHERE =NUCLEI  
 OUTPUT=BOTH       OUTPUT=BOTH       OUTPUT=BOTH       OUTPUT=BOTH    
 IEMINT=       0   IEFINT=       0                     IEDINT=       0
                                                       MORB  =       0
          EXTRAPOLATION IN EFFECT
          DIIS IN EFFECT
 ORBITAL PRINTING OPTION: NPREO=     1    49     2     1

     -------------------------------
     INTEGRAL TRANSFORMATION OPTIONS
     -------------------------------
     NWORD  =            0
     CUTOFF = 1.0E-09     MPTRAN =       0
     DIRTRF =       F     AOINTS =DUP     

          ----------------------
          INTEGRAL INPUT OPTIONS
          ----------------------
 NOPK  =       1 NORDER=       0 SCHWRZ=       F

   --- ENCODED Z MATRIX ---
 COORD  TYPE   I   J   K   L   M   N
    1      1    3   1
    2      1    2   1
    3      2    2   1   3

 THE DETERMINANT OF THE G MATRIX IS 10**(    -4)

 THE DETERMINANT OF THE G MATRIX IS 10**(    -4)
 * * * WARNING * * *
 YOUR B MATRIX HAS A SMALL DETERMINANT.
 THIS SUGGESTS YOU MAY HAVE BADLY CHOSEN COORDINATES.

     ------------------------------------------
     THE POINT GROUP IS CNV, NAXIS= 2, ORDER= 4
     ------------------------------------------

 -- VARIATIONAL SPACE WILL BE RESTRICTED TO PURE SPHERICAL HARMONICS ONLY --
 AFTER EXCLUDING CONTAMINANT COMBINATIONS FROM THE CARTESIAN GAUSSIAN BASIS
 SET, THE NUMBER OF SPHERICAL HARMONICS KEPT IN THE VARIATION SPACE IS   46

     DIMENSIONS OF THE SYMMETRY SUBSPACES ARE
 A1  =   19     A2  =    5     B1  =   14     B2  =    8

 ..... DONE SETTING UP THE RUN .....
 STEP CPU TIME =     0.00 TOTAL CPU TIME =        0.0 (    0.0 MIN)
 TOTAL WALL CLOCK TIME=        0.0 SECONDS, CPU UTILIZATION IS   0.00%

          ********************
          1 ELECTRON INTEGRALS
          ********************
 ...... END OF ONE-ELECTRON INTEGRALS ......
 STEP CPU TIME =     0.00 TOTAL CPU TIME =        0.0 (    0.0 MIN)
 TOTAL WALL CLOCK TIME=        0.0 SECONDS, CPU UTILIZATION IS   0.00%

          -------------
          GUESS OPTIONS
          -------------
          GUESS =HUCKEL            NORB  =       0          NORDER=       0
          MIX   =       F          PRTMO =       F          PUNMO =       F
          TOLZ  = 1.0E-08          TOLE  = 1.0E-05
          SYMDEN=       F          PURIFY=       F

 INITIAL GUESS ORBITALS GENERATED BY HUCKEL   ROUTINE.
 HUCKEL GUESS REQUIRES     21583 WORDS.

 STATISTICS FOR GENERATION OF SYMMETRY ORBITAL -Q- MATRIX
 NUMBER OF CARTESIAN ATOMIC ORBITALS=         49
 NUMBER OF SPHERICAL CONTAMINANTS DROPPED=     3
 NUMBER OF LINEARLY DEPENDENT MOS DROPPED=     0
 TOTAL NUMBER OF MOS IN VARIATION SPACE=      46

 SYMMETRIES FOR INITIAL GUESS ORBITALS FOLLOW.   BOTH SET(S).
    16 ORBITALS ARE OCCUPIED (    7 CORE ORBITALS).
     8=?A1      9=?B1     10=?A1     11=B2      12=A1      13=B1      14=A2  
    15=B1      16=A1      17=B2      18=B1      19=A1      20=A1      21=A1  
    22=A1      23=A1      24=A1      25=A1      26=A1  
 ...... END OF INITIAL ORBITAL SELECTION ......
 STEP CPU TIME =     0.02 TOTAL CPU TIME =        0.0 (    0.0 MIN)
 TOTAL WALL CLOCK TIME=        0.0 SECONDS, CPU UTILIZATION IS 100.00%

                    ----------------------
                    AO INTEGRAL TECHNOLOGY
                    ----------------------
     S,P,L SHELL ROTATED AXIS INTEGRALS, REPROGRAMMED BY
        KAZUYA ISHIMURA (IMS) AND JOSE SIERRA (SYNSTAR).
     S,P,D,L SHELL ROTATED AXIS INTEGRALS PROGRAMMED BY
        KAZUYA ISHIMURA (INSTITUTE FOR MOLECULAR SCIENCE).
     S,P,D,F,G SHELL TO TOTAL QUARTET ANGULAR MOMENTUM SUM 5,
        ERIC PROGRAM BY GRAHAM FLETCHER (ELORET AND NASA ADVANCED
        SUPERCOMPUTING DIVISION, AMES RESEARCH CENTER).
     S,P,D,F,G,L SHELL GENERAL RYS QUADRATURE PROGRAMMED BY
        MICHEL DUPUIS (PACIFIC NORTHWEST NATIONAL LABORATORY).

          --------------------
          2 ELECTRON INTEGRALS
          --------------------

 THE -PK- OPTION IS OFF, THE INTEGRALS ARE NOT IN SUPERMATRIX FORM.
 STORING   15000 INTEGRALS/RECORD ON DISK, USING 12 BYTES/INTEGRAL.
 TWO ELECTRON INTEGRAL EVALUATION REQUIRES   90606 WORDS OF MEMORY.
 II,JST,KST,LST =  1  1  1  1 NREC =         1 INTLOC =    1
 II,JST,KST,LST =  2  1  1  1 NREC =         1 INTLOC =    2
 II,JST,KST,LST =  3  1  1  1 NREC =         1 INTLOC =    7
 II,JST,KST,LST =  4  1  1  1 NREC =         1 INTLOC =   22
 II,JST,KST,LST =  5  1  1  1 NREC =         1 INTLOC =   56
 II,JST,KST,LST =  6  1  1  1 NREC =         1 INTLOC =  125
 II,JST,KST,LST =  7  1  1  1 NREC =         1 INTLOC =  329
 II,JST,KST,LST =  8  1  1  1 NREC =         1 INTLOC =  776
 II,JST,KST,LST =  9  1  1  1 NREC =         1 INTLOC = 2864
 II,JST,KST,LST = 10  1  1  1 NREC =         1 INTLOC = 2864
 II,JST,KST,LST = 11  1  1  1 NREC =         1 INTLOC = 2864
 II,JST,KST,LST = 12  1  1  1 NREC =         1 INTLOC = 2864
 II,JST,KST,LST = 13  1  1  1 NREC =         1 INTLOC = 2864
 II,JST,KST,LST = 14  1  1  1 NREC =         1 INTLOC = 2864
 II,JST,KST,LST = 15  1  1  1 NREC =         1 INTLOC = 2864
 II,JST,KST,LST = 16  1  1  1 NREC =         1 INTLOC = 5173
 II,JST,KST,LST = 17  1  1  1 NREC =         1 INTLOC = 8545
 II,JST,KST,LST = 18  1  1  1 NREC =         1 INTLOC =13029
 II,JST,KST,LST = 19  1  1  1 NREC =         3 INTLOC = 1732
 II,JST,KST,LST = 20  1  1  1 NREC =         5 INTLOC = 3303
 TOTAL NUMBER OF NONZERO TWO-ELECTRON INTEGRALS =              184109
         13 INTEGRAL RECORDS WERE STORED ON DISK FILE  8.
  ...... END OF TWO-ELECTRON INTEGRALS .....
 STEP CPU TIME =     0.16 TOTAL CPU TIME =        0.2 (    0.0 MIN)
 TOTAL WALL CLOCK TIME=        0.2 SECONDS, CPU UTILIZATION IS  94.74%

          --------------------------
               R-PBE SCF CALCULATION
          --------------------------

     NUCLEAR ENERGY =       132.8476703119
     MAXIT =   30     NPUNCH=    2
     EXTRAP=T  DAMP=F  SHIFT=F  RSTRCT=F  DIIS=T  DEM=F  SOSCF=F
         DENSITY MATRIX CONVERGENCE THRESHOLD=  1.00E-05
     COARSE -> FINE DFT GRID SWITCH THRESHOLD=  3.00E-04 (SWITCH IN $DFT)
                   HF -> DFT SWITCH THRESHOLD=  5.00E-03 (SWOFF IN $DFT)
     MEMORY REQUIRED FOR RHF ITERS=    183108 WORDS.

 DFT CODE IS SWITCHING FROM THE FINE GRID NRAD= 96,  NLEB=  302
                      TO THE COARSE GRID NRAD0= 24, NLEB0=  110

     EXCHANGE FUNCTIONAL   =PBE       
     CORRELATION FUNCTIONAL=PBE       
     DFT THRESHOLD         =.460E-07
     GRID CHANGE THRESHOLD =.300E-03
 FOR AN EULER-MACLAURIN QUADRATURE USING  96 RADIAL POINTS:
 SMALLEST GAUSSIAN PRIMITIVE EXPONENT=        0.1313100000 OF TYPE -P-
 ON ATOM NUMBER   1 HAS RADIAL NORMALIZATION=  1.000000
  LARGEST GAUSSIAN PRIMITIVE EXPONENT=    55510.0000000000 OF TYPE -S-
 ON ATOM NUMBER   1 HAS RADIAL NORMALIZATION=  0.999999
 DFT IS SWITCHED OFF, PERFORMING PURE SCF UNTIL SWOFF THRESHOLD IS REACHED.

 ITER EX DEM     TOTAL ENERGY        E CHANGE  DENSITY CHANGE    DIIS ERROR
   1  0  0     -545.4636213715  -545.4636213715   0.300054068   0.986601532
          * * *   INITIATING DIIS PROCEDURE   * * *
   2  1  0     -546.6317039038    -1.1680825323   0.365323281   0.174024697
   3  2  0     -546.7044279237    -0.0727240199   0.051004114   0.080293904
   4  3  0     -546.7211392742    -0.0167113505   0.019555764   0.021518472
   5  4  0     -546.7226269306    -0.0014876564   0.012797921   0.011451175
   6  5  0     -546.7229261482    -0.0002992176   0.005114154   0.002782921
   7  6  0     -546.7229687312    -0.0000425830   0.000291366   0.000212104
 CONVERGED TO SWOFF, SO DFT CALCULATION IS NOW SWITCHED ON.
 DFT CODE IS SWITCHING BACK TO THE FINE GRID
          * * *   INITIATING DIIS PROCEDURE   * * *
   8  7  0     -547.7774897517    -1.0545210204   0.142645290   0.083936516
   9  8  0     -547.7889402052    -0.0114504536   0.109515811   0.064892306
  10  9  0     -547.7869771147     0.0019630906   0.038771816   0.077165487
  11 10  0     -547.8004128480    -0.0134357334   0.014270136   0.006491662
  12 11  0     -547.8005571230    -0.0001442750   0.000565516   0.000752932
  13 12  0     -547.8005582736    -0.0000011506   0.000218808   0.000101227
  14 13  0     -547.8005583136    -0.0000000400   0.000012088   0.000015201
  15 14  0     -547.8005583142    -0.0000000006   0.000003591   0.000000878
  16 15  0     -547.8005583142     0.0000000000   0.000000298   0.000000091

          -----------------
          DENSITY CONVERGED
          -----------------
     TIME TO FORM FOCK OPERATORS=       4.8 SECONDS (       0.3 SEC/ITER)
     TIME TO SOLVE SCF EQUATIONS=       0.0 SECONDS (       0.0 SEC/ITER)

 FINAL R-PBE ENERGY IS     -547.8005583142 AFTER  16 ITERATIONS
 DFT EXCHANGE + CORRELATION ENERGY =       -43.1161365783
 TOTAL ELECTRON NUMBER             =        31.9999380781

          ------------
          EIGENVECTORS
          ------------

                      1          2          3          4          5
                  -88.1569   -18.7191   -18.7191    -7.8183    -5.8356
                     A1         A1         B1         A1         B1  
    1  S  1  S    1.002981  -0.000112   0.000000  -0.273764   0.000000
    2  S  1  S   -0.010144   0.000229   0.000000   1.039305   0.000000
    3  S  1  S    0.002078  -0.001458   0.000000   0.043919   0.000000
    4  S  1  S   -0.000540   0.011062   0.000000  -0.009763   0.000000
    5  S  1  X    0.000000   0.000000  -0.000297   0.000000   0.995014
    6  S  1  Y    0.000000   0.000000   0.000000   0.000000   0.000000
    7  S  1  Z    0.000021   0.000240   0.000000   0.012872   0.000000
    8  S  1  X    0.000000   0.000000   0.000763   0.000000   0.012753
    9  S  1  Y    0.000000   0.000000   0.000000   0.000000   0.000000
   10  S  1  Z    0.000373  -0.000651   0.000000   0.003839   0.000000
   11  S  1  X    0.000000   0.000000  -0.002797   0.000000  -0.000148
   12  S  1  Y    0.000000   0.000000   0.000000   0.000000   0.000000
   13  S  1  Z    0.000010   0.004811   0.000000  -0.000194   0.000000
   14  S  1 XX    0.000067   0.000209   0.000000   0.000548   0.000000
   15  S  1 YY   -0.000135   0.000813   0.000000  -0.001153   0.000000
   16  S  1 ZZ    0.000067  -0.001022   0.000000   0.000605   0.000000
   17  S  1 XY    0.000000   0.000000   0.000000   0.000000   0.000000
   18  S  1 XZ    0.000000   0.000000   0.002329   0.000000   0.002720
   19  S  1 YZ    0.000000   0.000000   0.000000   0.000000   0.000000
   20  O  2  S    0.000006   0.703132   0.703216  -0.001145   0.001804
   21  O  2  S   -0.000057   0.027013   0.027381   0.000165  -0.001770
   22  O  2  S   -0.000268  -0.014015  -0.012794  -0.001413   0.001085
   23  O  2  X   -0.000112   0.001550   0.001310   0.000519  -0.001800
   24  O  2  Y    0.000000   0.000000   0.000000   0.000000   0.000000
   25  O  2  Z    0.000104  -0.001250  -0.001665  -0.000673   0.002337
   26  O  2  X   -0.000188  -0.001761  -0.003100  -0.001630   0.000406
   27  O  2  Y    0.000000   0.000000   0.000000   0.000000   0.000000
   28  O  2  Z    0.000208   0.002140   0.001498   0.001811  -0.000633
   29  O  2 XX   -0.000034   0.000641  -0.000676   0.000134  -0.000208
   30  O  2 YY    0.000051  -0.000340   0.000285  -0.000590   0.000904
   31  O  2 ZZ   -0.000017  -0.000301   0.000391   0.000456  -0.000696
   32  O  2 XY    0.000000   0.000000   0.000000   0.000000   0.000000
   33  O  2 XZ    0.000082  -0.000086  -0.000406  -0.001102   0.001382
   34  O  2 YZ    0.000000   0.000000   0.000000   0.000000   0.000000
   35  O  3  S    0.000006   0.703132  -0.703216  -0.001145  -0.001804
   36  O  3  S   -0.000057   0.027013  -0.027381   0.000165   0.001770
   37  O  3  S   -0.000268  -0.014015   0.012794  -0.001413  -0.001085
   38  O  3  X    0.000112  -0.001550   0.001310  -0.000519  -0.001800
   39  O  3  Y    0.000000   0.000000   0.000000   0.000000   0.000000
   40  O  3  Z    0.000104  -0.001250   0.001665  -0.000673  -0.002337
   41  O  3  X    0.000188   0.001761  -0.003100   0.001630   0.000406
   42  O  3  Y    0.000000   0.000000   0.000000   0.000000   0.000000
   43  O  3  Z    0.000208   0.002140  -0.001498   0.001811   0.000633
   44  O  3 XX   -0.000034   0.000641   0.000676   0.000134   0.000208
   45  O  3 YY    0.000051  -0.000340  -0.000285  -0.000590  -0.000904
   46  O  3 ZZ   -0.000017  -0.000301  -0.000391   0.000456   0.000696
   47  O  3 XY    0.000000   0.000000   0.000000   0.000000   0.000000
   48  O  3 XZ   -0.000082   0.000086  -0.000406   0.001102   0.001382
   49  O  3 YZ    0.000000   0.000000   0.000000   0.000000   0.000000

                      6          7          8          9         10
                   -5.8338    -5.8307    -1.2318    -0.9895    -0.5725
                     B2         A1         A1         B1         A1  
    1  S  1  S    0.000000   0.004178   0.057530   0.000000   0.055643
    2  S  1  S    0.000000  -0.015658  -0.176491   0.000000  -0.160064
    3  S  1  S    0.000000   0.001353   0.304254   0.000000   0.345742
    4  S  1  S    0.000000   0.001619   0.080946   0.000000   0.377035
    5  S  1  X    0.000000   0.000000   0.000000  -0.185698   0.000000
    6  S  1  Y    0.996143   0.000000   0.000000   0.000000   0.000000
    7  S  1  Z    0.000000   0.995001  -0.128500   0.000000   0.139220
    8  S  1  X    0.000000   0.000000   0.000000   0.324608   0.000000
    9  S  1  Y    0.011111   0.000000   0.000000   0.000000   0.000000
   10  S  1  Z    0.000000   0.012602   0.199695   0.000000  -0.300605
   11  S  1  X    0.000000   0.000000   0.000000   0.028482   0.000000
   12  S  1  Y   -0.000653   0.000000   0.000000   0.000000   0.000000
   13  S  1  Z    0.000000   0.000031  -0.006019   0.000000  -0.116435
   14  S  1 XX    0.000000  -0.000710   0.010352   0.000000   0.061943
   15  S  1 YY    0.000000  -0.001454  -0.045173   0.000000   0.026414
   16  S  1 ZZ    0.000000   0.002164   0.034821   0.000000  -0.088357
   17  S  1 XY    0.000000   0.000000   0.000000   0.000000   0.000000
   18  S  1 XZ    0.000000   0.000000   0.000000   0.122743   0.000000
   19  S  1 YZ    0.001210   0.000000   0.000000   0.000000   0.000000
   20  O  2  S    0.000000  -0.001732  -0.124252   0.150013   0.053628
   21  O  2  S    0.000000   0.002075   0.228961  -0.278461  -0.098728
   22  O  2  S    0.000000  -0.001178   0.197605  -0.286168  -0.180361
   23  O  2  X    0.000000   0.002278   0.126748  -0.067071  -0.089720
   24  O  2  Y    0.000540   0.000000   0.000000   0.000000   0.000000
   25  O  2  Z    0.000000  -0.001982  -0.096053   0.133626  -0.214881
   26  O  2  X    0.000000  -0.000754   0.022888  -0.014867  -0.046155
   27  O  2  Y   -0.000304   0.000000   0.000000   0.000000   0.000000
   28  O  2  Z    0.000000   0.000215  -0.019278   0.023872  -0.095841
   29  O  2 XX    0.000000   0.000359   0.005552  -0.001377  -0.015507
   30  O  2 YY    0.000000  -0.000700  -0.010094   0.009544  -0.000700
   31  O  2 ZZ    0.000000   0.000341   0.004542  -0.008167   0.016208
   32  O  2 XY    0.000263   0.000000   0.000000   0.000000   0.000000
   33  O  2 XZ    0.000000  -0.001303  -0.017861   0.018613  -0.007732
   34  O  2 YZ   -0.000342   0.000000   0.000000   0.000000   0.000000
   35  O  3  S    0.000000  -0.001732  -0.124252  -0.150013   0.053628
   36  O  3  S    0.000000   0.002075   0.228961   0.278461  -0.098728
   37  O  3  S    0.000000  -0.001178   0.197605   0.286168  -0.180361
   38  O  3  X    0.000000  -0.002278  -0.126748  -0.067071   0.089720
   39  O  3  Y    0.000540   0.000000   0.000000   0.000000   0.000000
   40  O  3  Z    0.000000  -0.001982  -0.096053  -0.133626  -0.214881
   41  O  3  X    0.000000   0.000754  -0.022888  -0.014867   0.046155
   42  O  3  Y   -0.000304   0.000000   0.000000   0.000000   0.000000
   43  O  3  Z    0.000000   0.000215  -0.019278  -0.023872  -0.095841
   44  O  3 XX    0.000000   0.000359   0.005552   0.001377  -0.015507
   45  O  3 YY    0.000000  -0.000700  -0.010094  -0.009544  -0.000700
   46  O  3 ZZ    0.000000   0.000341   0.004542   0.008167   0.016208
   47  O  3 XY   -0.000263   0.000000   0.000000   0.000000   0.000000
   48  O  3 XZ    0.000000   0.001303   0.017861   0.018613   0.007732
   49  O  3 YZ   -0.000342   0.000000   0.000000   0.000000   0.000000

                     11         12         13         14         15
                   -0.5400    -0.4636    -0.4094    -0.3250    -0.3198
                     B2         A1         B1         A2         A1  
    1  S  1  S    0.000000   0.024042   0.000000   0.000000   0.018792
    2  S  1  S    0.000000  -0.042209   0.000000   0.000000  -0.089563
    3  S  1  S    0.000000   0.182275   0.000000   0.000000   0.082912
    4  S  1  S    0.000000  -0.093020   0.000000   0.000000   0.609929
    5  S  1  X    0.000000   0.000000  -0.161372   0.000000   0.000000
    6  S  1  Y   -0.206557   0.000000   0.000000   0.000000   0.000000
    7  S  1  Z    0.000000  -0.100784   0.000000   0.000000   0.164152
    8  S  1  X    0.000000   0.000000   0.354745   0.000000   0.000000
    9  S  1  Y    0.460977   0.000000   0.000000   0.000000   0.000000
   10  S  1  Z    0.000000   0.215153   0.000000   0.000000  -0.356995
   11  S  1  X    0.000000   0.000000   0.044210   0.000000   0.000000
   12  S  1  Y    0.152275   0.000000   0.000000   0.000000   0.000000
   13  S  1  Z    0.000000  -0.027614   0.000000   0.000000  -0.163207
   14  S  1 XX    0.000000  -0.085673   0.000000   0.000000  -0.144583
   15  S  1 YY    0.000000   0.001086   0.000000   0.000000   0.056267
   16  S  1 ZZ    0.000000   0.084587   0.000000   0.000000   0.088316
   17  S  1 XY    0.000000   0.000000   0.000000  -0.168036   0.000000
   18  S  1 XZ    0.000000   0.000000   0.037101   0.000000   0.000000
   19  S  1 YZ    0.097547   0.000000   0.000000   0.000000   0.000000
   20  O  2  S    0.000000   0.080761  -0.072940   0.000000   0.008487
   21  O  2  S    0.000000  -0.168904   0.152527   0.000000  -0.021362
   22  O  2  S    0.000000  -0.295208   0.310167   0.000000  -0.049527
   23  O  2  X    0.000000   0.367631  -0.170049   0.000000   0.057662
   24  O  2  Y    0.322948   0.000000   0.000000   0.471150   0.000000
   25  O  2  Z    0.000000  -0.049204   0.348507   0.000000   0.367865
   26  O  2  X    0.000000   0.195632  -0.096677   0.000000   0.051664
   27  O  2  Y    0.159227   0.000000   0.000000   0.329775   0.000000
   28  O  2  Z    0.000000  -0.028245   0.185324   0.000000   0.261463
   29  O  2 XX    0.000000   0.021675   0.002480   0.000000   0.010394
   30  O  2 YY    0.000000  -0.011691   0.014328   0.000000   0.006660
   31  O  2 ZZ    0.000000  -0.009984  -0.016808   0.000000  -0.017054
   32  O  2 XY    0.021946   0.000000   0.000000   0.017779   0.000000
   33  O  2 XZ    0.000000  -0.014897   0.016857   0.000000   0.018728
   34  O  2 YZ   -0.018767   0.000000   0.000000  -0.024785   0.000000
   35  O  3  S    0.000000   0.080761   0.072940   0.000000   0.008487
   36  O  3  S    0.000000  -0.168904  -0.152527   0.000000  -0.021362
   37  O  3  S    0.000000  -0.295208  -0.310167   0.000000  -0.049527
   38  O  3  X    0.000000  -0.367631  -0.170049   0.000000  -0.057662
   39  O  3  Y    0.322948   0.000000   0.000000  -0.471150   0.000000
   40  O  3  Z    0.000000  -0.049204  -0.348507   0.000000   0.367865
   41  O  3  X    0.000000  -0.195632  -0.096677   0.000000  -0.051664
   42  O  3  Y    0.159227   0.000000   0.000000  -0.329775   0.000000
   43  O  3  Z    0.000000  -0.028245  -0.185324   0.000000   0.261463
   44  O  3 XX    0.000000   0.021675  -0.002480   0.000000   0.010394
   45  O  3 YY    0.000000  -0.011691  -0.014328   0.000000   0.006660
   46  O  3 ZZ    0.000000  -0.009984   0.016808   0.000000  -0.017054
   47  O  3 XY   -0.021946   0.000000   0.000000   0.017779   0.000000
   48  O  3 XZ    0.000000   0.014897   0.016857   0.000000  -0.018728
   49  O  3 YZ   -0.018767   0.000000   0.000000   0.024785   0.000000

                     16         17         18         19         20
                   -0.2189    -0.1081     0.0483     0.1143     0.3285
                     B1         B2         B1         A1         B2  
    1  S  1  S    0.000000   0.000000   0.000000   0.008368   0.000000
    2  S  1  S    0.000000   0.000000   0.000000  -0.146089   0.000000
    3  S  1  S    0.000000   0.000000   0.000000  -0.087140   0.000000
    4  S  1  S    0.000000   0.000000   0.000000   1.648395   0.000000
    5  S  1  X   -0.008053   0.000000  -0.115788   0.000000   0.000000
    6  S  1  Y    0.000000  -0.197372   0.000000   0.000000   0.297461
    7  S  1  Z    0.000000   0.000000   0.000000  -0.031275   0.000000
    8  S  1  X    0.034840   0.000000   0.303278   0.000000   0.000000
    9  S  1  Y    0.000000   0.514598   0.000000   0.000000  -1.123808
   10  S  1  Z    0.000000   0.000000   0.000000   0.121588   0.000000
   11  S  1  X    0.228140   0.000000   1.175455   0.000000   0.000000
   12  S  1  Y    0.000000   0.709717   0.000000   0.000000   1.166804
   13  S  1  Z    0.000000   0.000000   0.000000   1.495430   0.000000
   14  S  1 XX    0.000000   0.000000   0.000000  -0.094363   0.000000
   15  S  1 YY    0.000000   0.000000   0.000000   0.287273   0.000000
   16  S  1 ZZ    0.000000   0.000000   0.000000  -0.192910   0.000000
   17  S  1 XY    0.000000   0.000000   0.000000   0.000000   0.000000
   18  S  1 XZ   -0.156076   0.000000  -0.245890   0.000000   0.000000
   19  S  1 YZ    0.000000  -0.170019   0.000000   0.000000  -0.093098
   20  O  2  S   -0.030527   0.000000  -0.039126   0.066344   0.000000
   21  O  2  S    0.061306   0.000000   0.037605  -0.058629   0.000000
   22  O  2  S    0.165580   0.000000   0.451501  -1.040100   0.000000
   23  O  2  X    0.471931   0.000000  -0.146287  -0.072025   0.000000
   24  O  2  Y    0.000000  -0.314190   0.000000   0.000000   0.031659
   25  O  2  Z    0.147794   0.000000  -0.275109   0.048166   0.000000
   26  O  2  X    0.323734   0.000000  -0.240013  -0.241561   0.000000
   27  O  2  Y    0.000000  -0.367951   0.000000   0.000000  -0.012613
   28  O  2  Z    0.136423   0.000000  -0.316986   0.062294   0.000000
   29  O  2 XX    0.021832   0.000000  -0.002839  -0.016082   0.000000
   30  O  2 YY   -0.001994   0.000000  -0.002914   0.023710   0.000000
   31  O  2 ZZ   -0.019837   0.000000   0.005754  -0.007628   0.000000
   32  O  2 XY    0.000000  -0.009489   0.000000   0.000000  -0.030698
   33  O  2 XZ   -0.024045   0.000000  -0.004815   0.001847   0.000000
   34  O  2 YZ    0.000000  -0.002171   0.000000   0.000000   0.025186
   35  O  3  S    0.030527   0.000000   0.039126   0.066344   0.000000
   36  O  3  S   -0.061306   0.000000  -0.037605  -0.058629   0.000000
   37  O  3  S   -0.165580   0.000000  -0.451501  -1.040100   0.000000
   38  O  3  X    0.471931   0.000000  -0.146287   0.072025   0.000000
   39  O  3  Y    0.000000  -0.314190   0.000000   0.000000   0.031659
   40  O  3  Z   -0.147794   0.000000   0.275109   0.048166   0.000000
   41  O  3  X    0.323734   0.000000  -0.240013   0.241561   0.000000
   42  O  3  Y    0.000000  -0.367951   0.000000   0.000000  -0.012613
   43  O  3  Z   -0.136423   0.000000   0.316986   0.062294   0.000000
   44  O  3 XX   -0.021832   0.000000   0.002839  -0.016082   0.000000
   45  O  3 YY    0.001994   0.000000   0.002914   0.023710   0.000000
   46  O  3 ZZ    0.019837   0.000000  -0.005754  -0.007628   0.000000
   47  O  3 XY    0.000000   0.009489   0.000000   0.000000   0.030698
   48  O  3 XZ   -0.024045   0.000000  -0.004815  -0.001847   0.000000
   49  O  3 YZ    0.000000  -0.002171   0.000000   0.000000   0.025186

                     21         22         23         24         25
                    0.3892     0.4395     0.5077     0.6428     0.6475
                     A1         B1         A1         A2         B1  
    1  S  1  S   -0.076384   0.000000  -0.038707   0.000000   0.000000
    2  S  1  S   -0.235600   0.000000  -0.060987   0.000000   0.000000
    3  S  1  S   -1.124035   0.000000  -0.489188   0.000000   0.000000
    4  S  1  S    1.613016   0.000000   2.301218   0.000000   0.000000
    5  S  1  X    0.000000   0.210338   0.000000   0.000000  -0.219283
    6  S  1  Y    0.000000   0.000000   0.000000   0.000000   0.000000
    7  S  1  Z   -0.228987   0.000000   0.023649   0.000000   0.000000
    8  S  1  X    0.000000  -0.625267   0.000000   0.000000   1.218828
    9  S  1  Y    0.000000   0.000000   0.000000   0.000000   0.000000
   10  S  1  Z    0.914455   0.000000   0.139369   0.000000   0.000000
   11  S  1  X    0.000000   1.285303   0.000000   0.000000  -0.268788
   12  S  1  Y    0.000000   0.000000   0.000000   0.000000   0.000000
   13  S  1  Z   -0.595316   0.000000   0.815610   0.000000   0.000000
   14  S  1 XX   -0.167889   0.000000   0.479403   0.000000   0.000000
   15  S  1 YY    0.241047   0.000000  -0.714394   0.000000   0.000000
   16  S  1 ZZ   -0.073158   0.000000   0.234991   0.000000   0.000000
   17  S  1 XY    0.000000   0.000000   0.000000   1.032394   0.000000
   18  S  1 XZ    0.000000   0.623795   0.000000   0.000000   0.172573
   19  S  1 YZ    0.000000   0.000000   0.000000   0.000000   0.000000
   20  O  2  S    0.014494  -0.018340   0.037213   0.000000  -0.062140
   21  O  2  S   -0.050332  -0.047282  -0.030579   0.000000   0.084330
   22  O  2  S   -0.199871   0.845323  -1.084048   0.000000   0.825247
   23  O  2  X    0.003953  -0.197078   0.204421   0.000000  -0.141860
   24  O  2  Y    0.000000   0.000000   0.000000   0.274605   0.000000
   25  O  2  Z   -0.018933   0.158689  -0.257106   0.000000   0.159121
   26  O  2  X   -0.141140   0.336597  -0.413186   0.000000   1.059367
   27  O  2  Y    0.000000   0.000000   0.000000   0.212170   0.000000
   28  O  2  Z    0.095433  -0.273121   0.576522   0.000000  -0.866318
   29  O  2 XX    0.010792  -0.008065  -0.012416   0.000000   0.019959
   30  O  2 YY    0.018498  -0.031833   0.003125   0.000000  -0.002541
   31  O  2 ZZ   -0.029290   0.039898   0.009291   0.000000  -0.017417
   32  O  2 XY    0.000000   0.000000   0.000000   0.004534   0.000000
   33  O  2 XZ    0.006199  -0.034355   0.059281   0.000000  -0.010485
   34  O  2 YZ    0.000000   0.000000   0.000000   0.049488   0.000000
   35  O  3  S    0.014494   0.018340   0.037213   0.000000   0.062140
   36  O  3  S   -0.050332   0.047282  -0.030579   0.000000  -0.084330
   37  O  3  S   -0.199871  -0.845323  -1.084048   0.000000  -0.825247
   38  O  3  X   -0.003953  -0.197078  -0.204421   0.000000  -0.141860
   39  O  3  Y    0.000000   0.000000   0.000000  -0.274605   0.000000
   40  O  3  Z   -0.018933  -0.158689  -0.257106   0.000000  -0.159121
   41  O  3  X    0.141140   0.336597   0.413186   0.000000   1.059367
   42  O  3  Y    0.000000   0.000000   0.000000  -0.212170   0.000000
   43  O  3  Z    0.095433   0.273121   0.576522   0.000000   0.866318
   44  O  3 XX    0.010792   0.008065  -0.012416   0.000000  -0.019959
   45  O  3 YY    0.018498   0.031833   0.003125   0.000000   0.002541
   46  O  3 ZZ   -0.029290  -0.039898   0.009291   0.000000   0.017417
   47  O  3 XY    0.000000   0.000000   0.000000   0.004534   0.000000
   48  O  3 XZ   -0.006199  -0.034355  -0.059281   0.000000  -0.010485
   49  O  3 YZ    0.000000   0.000000   0.000000  -0.049488   0.000000

                     26         27         28         29         30
                    0.6503     0.6786     0.7084     0.7832     0.7918
                     A1         B2         A1         A2         B2  
    1  S  1  S    0.069558   0.000000   0.055498   0.000000   0.000000
    2  S  1  S    0.344710   0.000000   0.300962   0.000000   0.000000
    3  S  1  S    1.198785   0.000000   0.985900   0.000000   0.000000
    4  S  1  S    0.136662   0.000000  -0.426491   0.000000   0.000000
    5  S  1  X    0.000000   0.000000   0.000000   0.000000   0.000000
    6  S  1  Y    0.000000   0.008066   0.000000   0.000000  -0.035805
    7  S  1  Z   -0.119678   0.000000  -0.116685   0.000000   0.000000
    8  S  1  X    0.000000   0.000000   0.000000   0.000000   0.000000
    9  S  1  Y    0.000000  -0.062356   0.000000   0.000000   0.057398
   10  S  1  Z    0.681141   0.000000   0.547223   0.000000   0.000000
   11  S  1  X    0.000000   0.000000   0.000000   0.000000   0.000000
   12  S  1  Y    0.000000   0.473493   0.000000   0.000000  -0.871602
   13  S  1  Z    0.118913   0.000000  -0.897293   0.000000   0.000000
   14  S  1 XX   -0.530573   0.000000   0.407519   0.000000   0.000000
   15  S  1 YY   -0.001225   0.000000   0.262159   0.000000   0.000000
   16  S  1 ZZ    0.531798   0.000000  -0.669678   0.000000   0.000000
   17  S  1 XY    0.000000   0.000000   0.000000   0.204107   0.000000
   18  S  1 XZ    0.000000   0.000000   0.000000   0.000000   0.000000
   19  S  1 YZ    0.000000   1.017265   0.000000   0.000000  -0.293755
   20  O  2  S    0.035074   0.000000   0.021642   0.000000   0.000000
   21  O  2  S   -0.021481   0.000000  -0.002297   0.000000   0.000000
   22  O  2  S   -0.418601   0.000000   0.039326   0.000000   0.000000
   23  O  2  X    0.084103   0.000000  -0.146551   0.000000   0.000000
   24  O  2  Y    0.000000  -0.319909   0.000000  -0.598035  -0.600425
   25  O  2  Z   -0.053902   0.000000  -0.206912   0.000000   0.000000
   26  O  2  X   -0.823773   0.000000   0.071432   0.000000   0.000000
   27  O  2  Y    0.000000  -0.226793   0.000000   0.925103   0.977231
   28  O  2  Z    0.357301   0.000000   0.869020   0.000000   0.000000
   29  O  2 XX    0.041199   0.000000  -0.017625   0.000000   0.000000
   30  O  2 YY   -0.007945   0.000000  -0.013709   0.000000   0.000000
   31  O  2 ZZ   -0.033254   0.000000   0.031334   0.000000   0.000000
   32  O  2 XY    0.000000   0.055252   0.000000  -0.044650   0.003611
   33  O  2 XZ   -0.025302   0.000000  -0.027071   0.000000   0.000000
   34  O  2 YZ    0.000000   0.008005   0.000000   0.014051   0.030271
   35  O  3  S    0.035074   0.000000   0.021642   0.000000   0.000000
   36  O  3  S   -0.021481   0.000000  -0.002297   0.000000   0.000000
   37  O  3  S   -0.418601   0.000000   0.039326   0.000000   0.000000
   38  O  3  X   -0.084103   0.000000   0.146551   0.000000   0.000000
   39  O  3  Y    0.000000  -0.319909   0.000000   0.598035  -0.600425
   40  O  3  Z   -0.053902   0.000000  -0.206912   0.000000   0.000000
   41  O  3  X    0.823773   0.000000  -0.071432   0.000000   0.000000
   42  O  3  Y    0.000000  -0.226793   0.000000  -0.925103   0.977231
   43  O  3  Z    0.357301   0.000000   0.869020   0.000000   0.000000
   44  O  3 XX    0.041199   0.000000  -0.017625   0.000000   0.000000
   45  O  3 YY   -0.007945   0.000000  -0.013709   0.000000   0.000000
   46  O  3 ZZ   -0.033254   0.000000   0.031334   0.000000   0.000000
   47  O  3 XY    0.000000  -0.055252   0.000000  -0.044650  -0.003611
   48  O  3 XZ    0.025302   0.000000   0.027071   0.000000   0.000000
   49  O  3 YZ    0.000000   0.008005   0.000000  -0.014051   0.030271

                     31         32         33         34         35
                    0.8587     0.9302     1.3867     1.5833     1.5959
                     A1         B1         A1         A1         B1  
    1  S  1  S    0.025944   0.000000   0.032849  -0.008527   0.000000
    2  S  1  S    0.083045   0.000000  -0.161067  -0.063117   0.000000
    3  S  1  S    0.391130   0.000000   0.187428  -0.168380   0.000000
    4  S  1  S   -0.097897   0.000000   0.941757   2.504288   0.000000
    5  S  1  X    0.000000   0.018992   0.000000   0.000000  -0.173640
    6  S  1  Y    0.000000   0.000000   0.000000   0.000000   0.000000
    7  S  1  Z   -0.061801   0.000000  -0.214400  -0.063681   0.000000
    8  S  1  X    0.000000  -0.037367   0.000000   0.000000   0.920950
    9  S  1  Y    0.000000   0.000000   0.000000   0.000000   0.000000
   10  S  1  Z    0.315914   0.000000   0.828751   0.519745   0.000000
   11  S  1  X    0.000000   1.072095   0.000000   0.000000   0.723939
   12  S  1  Y    0.000000   0.000000   0.000000   0.000000   0.000000
   13  S  1  Z   -0.097615   0.000000   0.324990   1.061847   0.000000
   14  S  1 XX    0.611280   0.000000   0.415777   0.069717   0.000000
   15  S  1 YY   -0.115984   0.000000  -0.803618  -0.328384   0.000000
   16  S  1 ZZ   -0.495295   0.000000   0.387841   0.258667   0.000000
   17  S  1 XY    0.000000   0.000000   0.000000   0.000000   0.000000
   18  S  1 XZ    0.000000   0.155785   0.000000   0.000000   0.923490
   19  S  1 YZ    0.000000   0.000000   0.000000   0.000000   0.000000
   20  O  2  S    0.012269   0.007045   0.040232  -0.003274  -0.016387
   21  O  2  S   -0.115594  -0.009081  -0.327052   1.088501  -0.654497
   22  O  2  S    0.029705   0.166820  -0.669407  -2.365134   2.021236
   23  O  2  X    0.390152   0.438843  -0.614440  -0.093940   0.341280
   24  O  2  Y    0.000000   0.000000   0.000000   0.000000   0.000000
   25  O  2  Z    0.509324   0.409614   0.354094   0.132348  -0.423837
   26  O  2  X   -0.362837  -1.017566   0.130810  -0.321468   0.405630
   27  O  2  Y    0.000000   0.000000   0.000000   0.000000   0.000000
   28  O  2  Z   -0.102377  -0.895473  -0.010879   0.282394  -0.261488
   29  O  2 XX    0.011367   0.037786   0.156154  -0.176604  -0.083933
   30  O  2 YY   -0.038296  -0.018514  -0.106820   0.108964   0.167268
   31  O  2 ZZ    0.026928  -0.019273  -0.049334   0.067640  -0.083335
   32  O  2 XY    0.000000   0.000000   0.000000   0.000000   0.000000
   33  O  2 XZ   -0.005790   0.022345  -0.025277  -0.237158   0.124074
   34  O  2 YZ    0.000000   0.000000   0.000000   0.000000   0.000000
   35  O  3  S    0.012269  -0.007045   0.040232  -0.003274   0.016387
   36  O  3  S   -0.115594   0.009081  -0.327052   1.088501   0.654497
   37  O  3  S    0.029705  -0.166820  -0.669407  -2.365134  -2.021236
   38  O  3  X   -0.390152   0.438843   0.614440   0.093940   0.341280
   39  O  3  Y    0.000000   0.000000   0.000000   0.000000   0.000000
   40  O  3  Z    0.509324  -0.409614   0.354094   0.132348   0.423837
   41  O  3  X    0.362837  -1.017566  -0.130810   0.321468   0.405630
   42  O  3  Y    0.000000   0.000000   0.000000   0.000000   0.000000
   43  O  3  Z   -0.102377   0.895473  -0.010879   0.282394   0.261488
   44  O  3 XX    0.011367  -0.037786   0.156154  -0.176604   0.083933
   45  O  3 YY   -0.038296   0.018514  -0.106820   0.108964  -0.167268
   46  O  3 ZZ    0.026928   0.019273  -0.049334   0.067640   0.083335
   47  O  3 XY    0.000000   0.000000   0.000000   0.000000   0.000000
   48  O  3 XZ    0.005790   0.022345   0.025277   0.237158   0.124074
   49  O  3 YZ    0.000000   0.000000   0.000000   0.000000   0.000000

                     36         37         38         39         40
                    1.6970     1.9762     2.0470     2.1188     2.2073
                     B1         B2         A1         B1         A2  
    1  S  1  S    0.000000   0.000000  -0.009004   0.000000   0.000000
    2  S  1  S    0.000000   0.000000   0.010312   0.000000   0.000000
    3  S  1  S    0.000000   0.000000  -0.089579   0.000000   0.000000
    4  S  1  S    0.000000   0.000000   1.092712   0.000000   0.000000
    5  S  1  X   -0.128453   0.000000   0.000000  -0.042633   0.000000
    6  S  1  Y    0.000000  -0.002187   0.000000   0.000000   0.000000
    7  S  1  Z    0.000000   0.000000   0.027744   0.000000   0.000000
    8  S  1  X    0.349275   0.000000   0.000000   0.187653   0.000000
    9  S  1  Y    0.000000   0.017870   0.000000   0.000000   0.000000
   10  S  1  Z    0.000000   0.000000   0.005523   0.000000   0.000000
   11  S  1  X   -0.211940   0.000000   0.000000   0.039395   0.000000
   12  S  1  Y    0.000000   0.057336   0.000000   0.000000   0.000000
   13  S  1  Z    0.000000   0.000000   0.501549   0.000000   0.000000
   14  S  1 XX    0.000000   0.000000  -0.001509   0.000000   0.000000
   15  S  1 YY    0.000000   0.000000   0.226001   0.000000   0.000000
   16  S  1 ZZ    0.000000   0.000000  -0.224492   0.000000   0.000000
   17  S  1 XY    0.000000   0.000000   0.000000   0.000000  -0.133600
   18  S  1 XZ    0.882974   0.000000   0.000000  -0.142379   0.000000
   19  S  1 YZ    0.000000  -0.166794   0.000000   0.000000   0.000000
   20  O  2  S   -0.012315   0.000000   0.003401  -0.003486   0.000000
   21  O  2  S    1.052467   0.000000   0.635695  -0.148825   0.000000
   22  O  2  S   -0.819986   0.000000  -1.080865   0.201297   0.000000
   23  O  2  X    0.261849   0.000000   0.078109   0.009025   0.000000
   24  O  2  Y    0.000000   0.069213   0.000000   0.000000  -0.066777
   25  O  2  Z   -0.398027   0.000000  -0.034439   0.013052   0.000000
   26  O  2  X   -0.225843   0.000000  -0.189704   0.026905   0.000000
   27  O  2  Y    0.000000  -0.075374   0.000000   0.000000   0.084010
   28  O  2  Z    0.260098   0.000000   0.178585  -0.044843   0.000000
   29  O  2 XX    0.200070   0.000000   0.420027  -0.145036   0.000000
   30  O  2 YY   -0.160682   0.000000  -0.570873  -0.447930   0.000000
   31  O  2 ZZ   -0.039388   0.000000   0.150846   0.592966   0.000000
   32  O  2 XY    0.000000   0.478088   0.000000   0.000000   0.555236
   33  O  2 XZ    0.056816   0.000000   0.278638   0.368214   0.000000
   34  O  2 YZ    0.000000   0.513828   0.000000   0.000000   0.464378
   35  O  3  S    0.012315   0.000000   0.003401   0.003486   0.000000
   36  O  3  S   -1.052467   0.000000   0.635695   0.148825   0.000000
   37  O  3  S    0.819986   0.000000  -1.080865  -0.201297   0.000000
   38  O  3  X    0.261849   0.000000  -0.078109   0.009025   0.000000
   39  O  3  Y    0.000000   0.069213   0.000000   0.000000   0.066777
   40  O  3  Z    0.398027   0.000000  -0.034439  -0.013052   0.000000
   41  O  3  X   -0.225843   0.000000   0.189704   0.026905   0.000000
   42  O  3  Y    0.000000  -0.075374   0.000000   0.000000  -0.084010
   43  O  3  Z   -0.260098   0.000000   0.178585   0.044843   0.000000
   44  O  3 XX   -0.200070   0.000000   0.420027   0.145036   0.000000
   45  O  3 YY    0.160682   0.000000  -0.570873   0.447930   0.000000
   46  O  3 ZZ    0.039388   0.000000   0.150846  -0.592966   0.000000
   47  O  3 XY    0.000000  -0.478088   0.000000   0.000000   0.555236
   48  O  3 XZ    0.056816   0.000000  -0.278638   0.368214   0.000000
   49  O  3 YZ    0.000000   0.513828   0.000000   0.000000  -0.464378

                     41         42         43         44         45
                    2.4053     2.5417     2.6266     2.7893     2.9070
                     A2         B2         A1         B1         B1  
    1  S  1  S    0.000000   0.000000  -0.012128   0.000000   0.000000
    2  S  1  S    0.000000   0.000000  -0.166105   0.000000   0.000000
    3  S  1  S    0.000000   0.000000  -0.371925   0.000000   0.000000
    4  S  1  S    0.000000   0.000000  -0.404255   0.000000   0.000000
    5  S  1  X    0.000000   0.000000   0.000000  -0.075748  -0.179262
    6  S  1  Y    0.000000  -0.114135   0.000000   0.000000   0.000000
    7  S  1  Z    0.000000   0.000000  -0.080252   0.000000   0.000000
    8  S  1  X    0.000000   0.000000   0.000000   1.232578   1.406293
    9  S  1  Y    0.000000   0.588630   0.000000   0.000000   0.000000
   10  S  1  Z    0.000000   0.000000   0.149685   0.000000   0.000000
   11  S  1  X    0.000000   0.000000   0.000000   0.215987   0.375556
   12  S  1  Y    0.000000   0.184030   0.000000   0.000000   0.000000
   13  S  1  Z    0.000000   0.000000   0.025844   0.000000   0.000000
   14  S  1 XX    0.000000   0.000000  -0.813930   0.000000   0.000000
   15  S  1 YY    0.000000   0.000000   0.041501   0.000000   0.000000
   16  S  1 ZZ    0.000000   0.000000   0.772430   0.000000   0.000000
   17  S  1 XY    0.627532   0.000000   0.000000   0.000000   0.000000
   18  S  1 XZ    0.000000   0.000000   0.000000   0.560611   0.882411
   19  S  1 YZ    0.000000   0.664474   0.000000   0.000000   0.000000
   20  O  2  S    0.000000   0.000000  -0.007652  -0.042971  -0.015009
   21  O  2  S    0.000000   0.000000  -0.361976  -0.753228   0.171332
   22  O  2  S    0.000000   0.000000   0.591955   2.169461   0.864375
   23  O  2  X    0.000000   0.000000  -0.116936   0.102116   0.318097
   24  O  2  Y   -0.031214  -0.032044   0.000000   0.000000   0.000000
   25  O  2  Z    0.000000   0.000000  -0.025439  -0.187233  -0.242598
   26  O  2  X    0.000000   0.000000   0.025396   1.063671   0.025557
   27  O  2  Y    0.306220  -0.314061   0.000000   0.000000   0.000000
   28  O  2  Z    0.000000   0.000000  -0.431121  -0.505400  -0.620341
   29  O  2 XX    0.000000   0.000000  -0.560350   0.633928  -0.472128
   30  O  2 YY    0.000000   0.000000  -0.277384  -0.622026  -0.035833
   31  O  2 ZZ    0.000000   0.000000   0.837734  -0.011902   0.507961
   32  O  2 XY    0.513487  -0.619142   0.000000   0.000000   0.000000
   33  O  2 XZ    0.000000   0.000000  -0.050579  -0.454628  -0.667382
   34  O  2 YZ   -0.619390   0.565852   0.000000   0.000000   0.000000
   35  O  3  S    0.000000   0.000000  -0.007652   0.042971   0.015009
   36  O  3  S    0.000000   0.000000  -0.361976   0.753228  -0.171332
   37  O  3  S    0.000000   0.000000   0.591955  -2.169461  -0.864375
   38  O  3  X    0.000000   0.000000   0.116936   0.102116   0.318097
   39  O  3  Y    0.031214  -0.032044   0.000000   0.000000   0.000000
   40  O  3  Z    0.000000   0.000000  -0.025439   0.187233   0.242598
   41  O  3  X    0.000000   0.000000  -0.025396   1.063671   0.025557
   42  O  3  Y   -0.306220  -0.314061   0.000000   0.000000   0.000000
   43  O  3  Z    0.000000   0.000000  -0.431121   0.505400   0.620341
   44  O  3 XX    0.000000   0.000000  -0.560350  -0.633928   0.472128
   45  O  3 YY    0.000000   0.000000  -0.277384   0.622026   0.035833
   46  O  3 ZZ    0.000000   0.000000   0.837734   0.011902  -0.507961
   47  O  3 XY    0.513487   0.619142   0.000000   0.000000   0.000000
   48  O  3 XZ    0.000000   0.000000   0.050579  -0.454628  -0.667382
   49  O  3 YZ    0.619390   0.565852   0.000000   0.000000   0.000000

                     46
                    3.0471
                     A1  
    1  S  1  S   -0.078617
    2  S  1  S   -0.573404
    3  S  1  S   -1.770938
    4  S  1  S   -1.330138
    5  S  1  X    0.000000
    6  S  1  Y    0.000000
    7  S  1  Z    0.149732
    8  S  1  X    0.000000
    9  S  1  Y    0.000000
   10  S  1  Z   -1.696366
   11  S  1  X    0.000000
   12  S  1  Y    0.000000
   13  S  1  Z   -0.307908
   14  S  1 XX   -0.068827
   15  S  1 YY    0.482695
   16  S  1 ZZ   -0.413868
   17  S  1 XY    0.000000
   18  S  1 XZ    0.000000
   19  S  1 YZ    0.000000
   20  O  2  S   -0.044425
   21  O  2  S   -0.387162
   22  O  2  S    1.827590
   23  O  2  X    0.271569
   24  O  2  Y    0.000000
   25  O  2  Z   -0.241723
   26  O  2  X    0.711688
   27  O  2  Y    0.000000
   28  O  2  Z   -0.639274
   29  O  2 XX    0.388300
   30  O  2 YY   -0.430460
   31  O  2 ZZ    0.042160
   32  O  2 XY    0.000000
   33  O  2 XZ   -0.841247
   34  O  2 YZ    0.000000
   35  O  3  S   -0.044425
   36  O  3  S   -0.387162
   37  O  3  S    1.827590
   38  O  3  X   -0.271569
   39  O  3  Y    0.000000
   40  O  3  Z   -0.241723
   41  O  3  X   -0.711688
   42  O  3  Y    0.000000
   43  O  3  Z   -0.639274
   44  O  3 XX    0.388300
   45  O  3 YY   -0.430460
   46  O  3 ZZ    0.042160
   47  O  3 XY    0.000000
   48  O  3 XZ    0.841247
   49  O  3 YZ    0.000000
 ...... END OF RHF CALCULATION ......
 STEP CPU TIME =     4.85 TOTAL CPU TIME =        5.0 (    0.1 MIN)
 TOTAL WALL CLOCK TIME=        5.0 SECONDS, CPU UTILIZATION IS  99.80%

     ---------------------------------------------------------------------
     PROPERTIES FOR THE PBE      DFT FUNCTIONAL (RHF  TYPE) DENSITY MATRIX
     ---------------------------------------------------------------------

          -----------------
          ENERGY COMPONENTS
          -----------------

         WAVEFUNCTION NORMALIZATION =       1.0000000000

                ONE ELECTRON ENERGY =   -1018.7393388632
                TWO ELECTRON ENERGY =     338.0911102371
           NUCLEAR REPULSION ENERGY =     132.8476703119
                                      ------------------
                       TOTAL ENERGY =    -547.8005583142

 ELECTRON-ELECTRON POTENTIAL ENERGY =     338.0911102371
  NUCLEUS-ELECTRON POTENTIAL ENERGY =   -1569.9714513932
   NUCLEUS-NUCLEUS POTENTIAL ENERGY =     132.8476703119
                                      ------------------
             TOTAL POTENTIAL ENERGY =   -1099.0326708442
               TOTAL KINETIC ENERGY =     551.2321125300
                 VIRIAL RATIO (V/T) =       1.9937747563

          ---------------------------------------
          MULLIKEN AND LOWDIN POPULATION ANALYSES
          ---------------------------------------

     ATOMIC MULLIKEN POPULATION IN EACH MOLECULAR ORBITAL

                      1          2          3          4          5

                  2.000000   2.000000   2.000000   2.000000   2.000000

    1             2.000065   0.002226  -0.000282   2.002523   1.998950
    2            -0.000032   0.998887   1.000141  -0.001261   0.000525
    3            -0.000032   0.998887   1.000141  -0.001261   0.000525

                      6          7          8          9         10

                  2.000000   2.000000   2.000000   2.000000   2.000000

    1             1.999966   1.999061   0.756454   0.599055   1.221066
    2             0.000017   0.000470   0.621773   0.700472   0.389467
    3             0.000017   0.000470   0.621773   0.700472   0.389467

                     11         12         13         14         15

                  2.000000   2.000000   2.000000   2.000000   2.000000

    1             0.913874   0.219168   0.247952   0.176323   0.981977
    2             0.543063   0.890416   0.876024   0.911838   0.509011
    3             0.543063   0.890416   0.876024   0.911838   0.509011

                     16

                  2.000000

    1             0.324126
    2             0.837937
    3             0.837937

               ----- POPULATIONS IN EACH AO -----
                             MULLIKEN      LOWDIN
              1  S  1  S      2.00026     1.99586
              2  S  1  S      2.01124     1.91778
              3  S  1  S      0.90206     0.52734
              4  S  1  S      0.89960     0.55838
              5  S  1  X      1.99657     1.95790
              6  S  1  Y      1.99547     1.95416
              7  S  1  Z      1.99707     1.96533
              8  S  1  X      0.70765     0.62142
              9  S  1  Y      0.64646     0.57195
             10  S  1  Z      0.89379     0.83292
             11  S  1  X      0.22910     0.31912
             12  S  1  Y      0.21095     0.27641
             13  S  1  Z      0.20281     0.36034
             14  S  1 XX      0.15976     0.31602
             15  S  1 YY      0.11596     0.21351
             16  S  1 ZZ      0.17632     0.33107
             17  S  1 XY      0.23649     0.22634
             18  S  1 XZ      0.06096     0.29032
             19  S  1 YZ      0.00000     0.05936
             20  O  2  S      1.99811     1.97891
             21  O  2  S      0.80408     0.61566
             22  O  2  S      0.89560     0.49200
             23  O  2  X      1.14793     1.11161
             24  O  2  Y      0.92488     0.88001
             25  O  2  Z      1.02224     0.99652
             26  O  2  X      0.47000     0.53011
             27  O  2  Y      0.51624     0.55495
             28  O  2  Z      0.46116     0.56738
             29  O  2 XX      0.00840     0.19185
             30  O  2 YY      0.00405     0.18839
             31  O  2 ZZ      0.00637     0.19684
             32  O  2 XY      0.01225     0.01108
             33  O  2 XZ      0.00743     0.02708
             34  O  2 YZ      0.00000     0.00985
             35  O  3  S      1.99811     1.97891
             36  O  3  S      0.80408     0.61566
             37  O  3  S      0.89560     0.49200
             38  O  3  X      1.14793     1.11161
             39  O  3  Y      0.92488     0.88001
             40  O  3  Z      1.02224     0.99652
             41  O  3  X      0.47000     0.53011
             42  O  3  Y      0.51624     0.55495
             43  O  3  Z      0.46116     0.56738
             44  O  3 XX      0.00840     0.19185
             45  O  3 YY      0.00405     0.18839
             46  O  3 ZZ      0.00637     0.19684
             47  O  3 XY      0.01225     0.01108
             48  O  3 XZ      0.00743     0.02708
             49  O  3 YZ      0.00000     0.00985

          ----- MULLIKEN ATOMIC OVERLAP POPULATIONS -----
          (OFF-DIAGONAL ELEMENTS NEED TO BE MULTIPLIED BY 2)

             1           2           3

    1   14.3601528
    2    0.5411753   8.1476021
    3    0.5411753  -0.4100291   8.1476021

          TOTAL MULLIKEN AND LOWDIN ATOMIC POPULATIONS
       ATOM         MULL.POP.    CHARGE          LOW.POP.     CHARGE
    1 S            15.442503    0.557497        15.295529    0.704471
    2 O             8.278748   -0.278748         8.352236   -0.352236
    3 O             8.278748   -0.278748         8.352236   -0.352236

          MULLIKEN SPHERICAL HARMONIC POPULATIONS
       ATOM           S       P       D      F      G      H      I    TOTAL
    1 S             5.81    8.88    0.75   0.00   0.00   0.00   0.00   15.44
    2 O             3.70    4.54    0.04   0.00   0.00   0.00   0.00    8.28
    3 O             3.70    4.54    0.04   0.00   0.00   0.00   0.00    8.28

          -------------------------------
          BOND ORDER AND VALENCE ANALYSIS     BOND ORDER THRESHOLD=0.050
          -------------------------------

                   BOND                       BOND                       BOND
  ATOM PAIR DIST  ORDER      ATOM PAIR DIST  ORDER      ATOM PAIR DIST  ORDER
    1   2  1.200  2.103        1   3  1.200  2.103

                       TOTAL       BONDED        FREE
      ATOM            VALENCE     VALENCE     VALENCE
    1 S                 4.206       4.206       0.000
    2 O                 2.125       2.125       0.000
    3 O                 2.125       2.125       0.000

          ---------------------
          ELECTROSTATIC MOMENTS
          ---------------------

 POINT   1           X           Y           Z (BOHR)    CHARGE
                 0.000000    0.000000    0.000000        0.00 (A.U.)
         DX          DY          DZ         /D/  (DEBYE)
     0.000000    0.000000   -2.148037    2.148037
 ...... END OF PROPERTY EVALUATION ......
 STEP CPU TIME =     0.00 TOTAL CPU TIME =        5.0 (    0.1 MIN)
 TOTAL WALL CLOCK TIME=        5.0 SECONDS, CPU UTILIZATION IS  99.80%
               580000  WORDS OF DYNAMIC MEMORY USED
 EXECUTION OF GAMESS TERMINATED NORMALLY Thu Feb 26 00:12:32 2015
 DDI: 263624 bytes (0.3 MB / 0 MWords) used by master data server.

 ----------------------------------------
 CPU timing information for all processes
 ========================================
 0: 5.31 + 0.18 = 5.50
 ----------------------------------------
 ddikick.x: exited gracefully.
----- accounting info -----
Files used on the master node dftfe.crc.nd.edu were:
-rw-r--r-- 1 pmehta1 campus   37475 Feb 26 00:12 /tmp/gamess.dat
-rw-r--r-- 1 pmehta1 campus     141 Feb 26 00:12 /tmp/gamess.F05
-rw-r--r-- 1 pmehta1 campus 2340312 Feb 26 00:12 /tmp/gamess.F08
-rw-r--r-- 1 pmehta1 campus 1220440 Feb 26 00:12 /tmp/gamess.F10
Thu Feb 26 00:12:37 EST 2015
0.237u 0.187s 0:10.03 4.0%	0+0k 0+96io 0pf+0w
