----- GAMESS execution script 'rungms' -----
This job is running on host dftfe.crc.nd.edu
under operating system Linux at Thu Feb 26 00:13:20 EST 2015
Available scratch disk space (Kbyte units) at beginning of the job is
Filesystem     1K-blocks     Used Available Use% Mounted on
/dev/sda2      147771864 22810660 117454772  17% /
GAMESS temporary binary files will be written to /tmp
GAMESS supplementary output files will be written to /tmp
Copying input file gamess.inp to your run's scratch directory...

 Distributed Data Interface kickoff program.
 Initiating 1 compute processes on 1 nodes to run the following command:
 /opt/crc/gamess/2012R1/gamess/gamess.00.x gamess 

          ******************************************************
          *         GAMESS VERSION =  1 MAY 2012 (R1)          *
          *             FROM IOWA STATE UNIVERSITY             *
          * M.W.SCHMIDT, K.K.BALDRIDGE, J.A.BOATZ, S.T.ELBERT, *
          *   M.S.GORDON, J.H.JENSEN, S.KOSEKI, N.MATSUNAGA,   *
          *          K.A.NGUYEN, S.J.SU, T.L.WINDUS,           *
          *       TOGETHER WITH M.DUPUIS, J.A.MONTGOMERY       *
          *         J.COMPUT.CHEM.  14, 1347-1363(1993)        *
          **************** 64 BIT LINUX VERSION ****************

  SINCE 1993, STUDENTS AND POSTDOCS WORKING AT IOWA STATE UNIVERSITY
  AND ALSO IN THEIR VARIOUS JOBS AFTER LEAVING ISU HAVE MADE IMPORTANT
  CONTRIBUTIONS TO THE CODE:
     IVANA ADAMOVIC, CHRISTINE AIKENS, YURI ALEXEEV, POOJA ARORA,
     ANDREY ASADCHEV, ROB BELL, PRADIPTA BANDYOPADHYAY, JONATHAN BENTZ,
     BRETT BODE, GALINA CHABAN, WEI CHEN, CHEOL HO CHOI, PAUL DAY,
     ALBERT DEFUSCO, TIM DUDLEY, DMITRI FEDOROV, GRAHAM FLETCHER,
     MARK FREITAG, KURT GLAESEMANN, DAN KEMP, GRANT MERRILL,
     NORIYUKI MINEZAWA, JONATHAN MULLIN, TAKESHI NAGATA,
     SEAN NEDD, HEATHER NETZLOFF, BOSILJKA NJEGIC, RYAN OLSON, MIKE PAK,
     JIM SHOEMAKER, LYUDMILA SLIPCHENKO, SAROM SOK, JIE SONG,
     TETSUYA TAKETSUGU, SIMON WEBB, SOOHAENG YOO, FEDERICO ZAHARIEV

  ADDITIONAL CODE HAS BEEN PROVIDED BY COLLABORATORS IN OTHER GROUPS:
     IOWA STATE UNIVERSITY:
          JOE IVANIC, LAIMUTIS BYTAUTAS, KLAUS RUEDENBERG
     UNIVERSITY OF TOKYO: KIMIHIKO HIRAO, TAKAHITO NAKAJIMA,
          TAKAO TSUNEDA, MUNEAKI KAMIYA, SUSUMU YANAGISAWA,
          KIYOSHI YAGI, MAHITO CHIBA, SEIKEN TOKURA, NAOAKI KAWAKAMI
     UNIVERSITY OF AARHUS: FRANK JENSEN
     UNIVERSITY OF IOWA: VISVALDAS KAIRYS, HUI LI
     NATIONAL INST. OF STANDARDS AND TECHNOLOGY: WALT STEVENS, DAVID GARMER
     UNIVERSITY OF PISA: BENEDETTA MENNUCCI, JACOPO TOMASI
     UNIVERSITY OF MEMPHIS: HENRY KURTZ, PRAKASHAN KORAMBATH
     UNIVERSITY OF ALBERTA: TOBY ZENG, MARIUSZ KLOBUKOWSKI
     UNIVERSITY OF NEW ENGLAND: MARK SPACKMAN
     MIE UNIVERSITY: HIROAKI UMEDA
     MICHIGAN STATE UNIVERSITY:
          KAROL KOWALSKI, MARTA WLOCH, JEFFREY GOUR, JESSE LUTZ, PIOTR PIECUCH
     UNIVERSITY OF SILESIA: MONIKA MUSIAL, STANISLAW KUCHARSKI
     FACULTES UNIVERSITAIRES NOTRE-DAME DE LA PAIX:
          OLIVIER QUINET, BENOIT CHAMPAGNE
     UNIVERSITY OF CALIFORNIA - SANTA BARBARA: BERNARD KIRTMAN
     INSTITUTE FOR MOLECULAR SCIENCE:
          KAZUYA ISHIMURA, MICHIO KATOUDA, AND SHIGERU NAGASE
     UNIVERSITY OF NOTRE DAME: DAN CHIPMAN
     KYUSHU UNIVERSITY:
          HARUYUKI NAKANO,
          FENG LONG GU, JACEK KORCHOWIEC, MARCIN MAKOWSKI, AND YURIKO AOKI,
          HIROTOSHI MORI AND EISAKU MIYOSHI
     PENNSYLVANIA STATE UNIVERSITY:
          TZVETELIN IORDANOV, CHET SWALINA, JONATHAN SKONE,
          SHARON HAMMES-SCHIFFER
     WASEDA UNIVERSITY:
          MASATO KOBAYASHI, TOMOKO AKAMA, TSUGUKI TOUMA,
          TAKESHI YOSHIKAWA, YASUHIRO IKABATA, HIROMI NAKAI
     UNIVERSITY OF NEBRASKA:
          PEIFENG SU, DEJUN SI, NANDUN THELLAMUREGE, YALI WANG, HUI LI
     UNIVERSITY OF ZURICH:
          ROBERTO PEVERATI, KIM BALDRIDGE
     N. COPERNICUS UNIVERSITY AND JACKSON STATE UNIVERSITY:
          MARIA BARYSZ

 EXECUTION OF GAMESS BEGUN Thu Feb 26 00:13:20 2015

            ECHO OF THE FIRST FEW INPUT CARDS -
 INPUT CARD> $BASIS GBASIS=PC1 $END                                                         
 INPUT CARD> $CONTRL COORD=ZMT ISPHER=1 RUNTYP=ENERGY DFTTYP=PBE $END                       
 INPUT CARD>                                                                                
 INPUT CARD> $DATA                                                                          
 INPUT CARD>Title                                                                           
 INPUT CARD>Cnv 2                                                                           
 INPUT CARD>                                                                                
 INPUT CARD>S                                                                               
 INPUT CARD>O 1 1.20                                                                        
 INPUT CARD>O 1 1.20 2 150.0                                                                
 INPUT CARD> $END                                                                           
    1000000 WORDS OF MEMORY AVAILABLE

     BASIS OPTIONS
     -------------
     GBASIS=PC1          IGAUSS=       0      POLAR=NONE    
     NDFUNC=       0     NFFUNC=       0     DIFFSP=       F
     NPFUNC=       0      DIFFS=       F     BASNAM=        


     RUN TITLE
     ---------
 Title                                                                           

 THE POINT GROUP OF THE MOLECULE IS CNV     
 THE ORDER OF THE PRINCIPAL AXIS IS     2

 YOUR FULLY SUBSTITUTED Z-MATRIX IS
 S   
 O      1   1.2000000
 O      1   1.2000000  2  150.0000

 THE MOMENTS OF INERTIA ARE (AMU-ANGSTROM**2)
 IXX=     1.542   IYY=    42.980   IZZ=    44.522

 ATOM      ATOMIC                      COORDINATES (BOHR)
           CHARGE         X                   Y                   Z
 S          16.0     0.0000000000        0.0000000000       -0.2935396827
 O           8.0    -2.1904021634        0.0000000000        0.2933768081
 O           8.0     2.1904021634        0.0000000000        0.2933768081

          INTERNUCLEAR DISTANCES (ANGS.)
          ------------------------------

                1 S          2 O          3 O     

   1 S       0.0000000    1.2000000 *  1.2000000 *
   2 O       1.2000000 *  0.0000000    2.3182220 *
   3 O       1.2000000 *  2.3182220 *  0.0000000  

  * ... LESS THAN  3.000


     ATOMIC BASIS SET
     ----------------
 THE CONTRACTED PRIMITIVE FUNCTIONS HAVE BEEN UNNORMALIZED
 THE CONTRACTED BASIS FUNCTIONS ARE NOW NORMALIZED TO UNITY

  SHELL TYPE  PRIMITIVE        EXPONENT          CONTRACTION COEFFICIENT(S)

 S         

      1   S       1         55510.0000000    0.000587229760
      1   S       2          8326.7000000    0.004532413947
      1   S       3          1895.6000000    0.023265261648
      1   S       4           536.7700000    0.089696133027
      1   S       5           174.6700000    0.254098332277
      1   S       6            62.5780000    0.438665087637
      1   S       7            23.5730000    0.314547135094
      1   S       8             5.8908000    0.032727897102

      2   S       9          8326.7000000   -0.000019755715
      2   S      10          1895.6000000   -0.000043822381
      2   S      11           536.7700000   -0.001730264906
      2   S      12           174.6700000   -0.009381263460
      2   S      13            62.5780000   -0.064050766303
      2   S      14            23.5730000   -0.082478179196
      2   S      15             5.8908000    0.478342956889
      2   S      16             2.1852000    0.626896670208

      3   S      17          1895.6000000    0.000016227260
      3   S      18           536.7700000    0.000191135619
      3   S      19           174.6700000    0.001952069674
      3   S      20            62.5780000    0.010578701087
      3   S      21            23.5730000    0.022164934551
      3   S      22             5.8908000   -0.184968323118
      3   S      23             2.1852000   -0.480920750976
      3   S      24             0.4528200    1.243822243872

      4   S      25             0.1620200    1.000000000000

      5   P      26           395.4500000    0.004642761329
      5   P      27            92.8340000    0.036023396489
      5   P      28            29.2660000    0.149058869978
      5   P      29            10.5950000    0.360033266263
      5   P      30             4.0272000    0.455756476221
      5   P      31             1.5484000    0.206167664178

      6   P      32            92.8340000    0.000169901442
      6   P      33            29.2660000   -0.002541839934
      6   P      34            10.5950000   -0.007867614595
      6   P      35             4.0272000   -0.037231009184
      6   P      36             1.5484000    0.161417246830
      6   P      37             0.4613400    0.902230419976

      7   P      38             0.1313100    1.000000000000

      8   D      39             0.5500000    1.000000000000

 O         

     15   S      40          2306.7000000    0.005424388755
     15   S      41           347.1500000    0.040474749465
     15   S      42            78.8900000    0.180219634554
     15   S      43            21.8760000    0.462370311787
     15   S      44             6.6646000    0.454888396263

     16   S      45           347.1500000   -0.000655003786
     16   S      46            78.8900000   -0.005362052952
     16   S      47            21.8760000   -0.074902158894
     16   S      48             6.6646000   -0.181442579655
     16   S      49             1.0669000    1.102006874042

     17   S      50             0.3070000    1.000000000000

     18   P      51            17.0220000    0.068979967443
     18   P      52             3.6838000    0.351985516325
     18   P      53             0.9923400    0.724036547822

     19   P      54             0.2448700    1.000000000000

     20   D      55             1.0000000    1.000000000000

 TOTAL NUMBER OF BASIS SET SHELLS             =   20
 NUMBER OF CARTESIAN GAUSSIAN BASIS FUNCTIONS =   49
 NOTE: THIS RUN WILL RESTRICT THE MO VARIATION SPACE TO SPHERICAL HARMONICS.
 THE NUMBER OF ORBITALS KEPT IN THE VARIATIONAL SPACE WILL BE PRINTED LATER.
 NUMBER OF ELECTRONS                          =   32
 CHARGE OF MOLECULE                           =    0
 SPIN MULTIPLICITY                            =    1
 NUMBER OF OCCUPIED ORBITALS (ALPHA)          =   16
 NUMBER OF OCCUPIED ORBITALS (BETA )          =   16
 TOTAL NUMBER OF ATOMS                        =    3
 THE NUCLEAR REPULSION ENERGY IS      127.5003358739

     LEBEDEV GRID-BASED DFT OPTIONS
     ------------------------------
     DFTTYP=PBE     
     NRAD  =      96     NLEB  =     302
     NRAD0 =      24     NLEB0 =     110
     SWOFF =    5.00E-03 (PURE SCF -> DFT)
     SWITCH=    3.00E-04 (COARSE -> TIGHT GRID)
     THRESH=    0.00E+00 GTHRE=    1.00E+00

 GRIMME'S EMPIRICAL DISPERSION CORRECTION= F

     $CONTRL OPTIONS
     ---------------
 SCFTYP=RHF          RUNTYP=ENERGY       EXETYP=RUN     
 MPLEVL=       0     CITYP =NONE         CCTYP =NONE         VBTYP =NONE    
 DFTTYP=PBE          TDDFT =NONE    
 MULT  =       1     ICHARG=       0     NZVAR =       0     COORD =ZMT     
 PP    =NONE         RELWFN=NONE         LOCAL =NONE         NUMGRD=       F
 ISPHER=       1     NOSYM =       0     MAXIT =      30     UNITS =ANGS    
 PLTORB=       F     MOLPLT=       F     AIMPAC=       F     FRIEND=        
 NPRINT=       7     IREST =       0     GEOM  =INPUT   
 NORMF =       0     NORMP =       0     ITOL  =      20     ICUT  =       9
 INTTYP=BEST         GRDTYP=BEST         QMTTOL= 1.0E-06

     $SYSTEM OPTIONS
     ---------------
  REPLICATED MEMORY=     1000000 WORDS (ON EVERY NODE).
 DISTRIBUTED MEMDDI=           0 MILLION WORDS IN AGGREGATE,
 MEMDDI DISTRIBUTED OVER   1 PROCESSORS IS           0 WORDS/PROCESSOR.
 TOTAL MEMORY REQUESTED ON EACH PROCESSOR=     1000000 WORDS.
 TIMLIM=      525600.00 MINUTES, OR     365.0 DAYS.
 PARALL= F  BALTYP=  DLB     KDIAG=    0  COREFL= F
 MXSEQ2=     300 MXSEQ3=     150

          ----------------
          PROPERTIES INPUT
          ----------------

     MOMENTS            FIELD           POTENTIAL          DENSITY
 IEMOM =       1   IEFLD =       0   IEPOT =       0   IEDEN =       0
 WHERE =COMASS     WHERE =NUCLEI     WHERE =NUCLEI     WHERE =NUCLEI  
 OUTPUT=BOTH       OUTPUT=BOTH       OUTPUT=BOTH       OUTPUT=BOTH    
 IEMINT=       0   IEFINT=       0                     IEDINT=       0
                                                       MORB  =       0
          EXTRAPOLATION IN EFFECT
          DIIS IN EFFECT
 ORBITAL PRINTING OPTION: NPREO=     1    49     2     1

     -------------------------------
     INTEGRAL TRANSFORMATION OPTIONS
     -------------------------------
     NWORD  =            0
     CUTOFF = 1.0E-09     MPTRAN =       0
     DIRTRF =       F     AOINTS =DUP     

          ----------------------
          INTEGRAL INPUT OPTIONS
          ----------------------
 NOPK  =       1 NORDER=       0 SCHWRZ=       F

   --- ENCODED Z MATRIX ---
 COORD  TYPE   I   J   K   L   M   N
    1      1    3   1
    2      1    2   1
    3      2    2   1   3

 THE DETERMINANT OF THE G MATRIX IS 10**(    -4)

 THE DETERMINANT OF THE G MATRIX IS 10**(    -4)
 * * * WARNING * * *
 YOUR B MATRIX HAS A SMALL DETERMINANT.
 THIS SUGGESTS YOU MAY HAVE BADLY CHOSEN COORDINATES.

     ------------------------------------------
     THE POINT GROUP IS CNV, NAXIS= 2, ORDER= 4
     ------------------------------------------

 -- VARIATIONAL SPACE WILL BE RESTRICTED TO PURE SPHERICAL HARMONICS ONLY --
 AFTER EXCLUDING CONTAMINANT COMBINATIONS FROM THE CARTESIAN GAUSSIAN BASIS
 SET, THE NUMBER OF SPHERICAL HARMONICS KEPT IN THE VARIATION SPACE IS   46

     DIMENSIONS OF THE SYMMETRY SUBSPACES ARE
 A1  =   19     A2  =    5     B1  =   14     B2  =    8

 ..... DONE SETTING UP THE RUN .....
 STEP CPU TIME =     0.00 TOTAL CPU TIME =        0.0 (    0.0 MIN)
 TOTAL WALL CLOCK TIME=        0.0 SECONDS, CPU UTILIZATION IS   0.00%

          ********************
          1 ELECTRON INTEGRALS
          ********************
 ...... END OF ONE-ELECTRON INTEGRALS ......
 STEP CPU TIME =     0.00 TOTAL CPU TIME =        0.0 (    0.0 MIN)
 TOTAL WALL CLOCK TIME=        0.0 SECONDS, CPU UTILIZATION IS   0.00%

          -------------
          GUESS OPTIONS
          -------------
          GUESS =HUCKEL            NORB  =       0          NORDER=       0
          MIX   =       F          PRTMO =       F          PUNMO =       F
          TOLZ  = 1.0E-08          TOLE  = 1.0E-05
          SYMDEN=       F          PURIFY=       F

 INITIAL GUESS ORBITALS GENERATED BY HUCKEL   ROUTINE.
 HUCKEL GUESS REQUIRES     21583 WORDS.

 STATISTICS FOR GENERATION OF SYMMETRY ORBITAL -Q- MATRIX
 NUMBER OF CARTESIAN ATOMIC ORBITALS=         49
 NUMBER OF SPHERICAL CONTAMINANTS DROPPED=     3
 NUMBER OF LINEARLY DEPENDENT MOS DROPPED=     0
 TOTAL NUMBER OF MOS IN VARIATION SPACE=      46

 SYMMETRIES FOR INITIAL GUESS ORBITALS FOLLOW.   BOTH SET(S).
    16 ORBITALS ARE OCCUPIED (    7 CORE ORBITALS).
     8=?A1      9=?B1     10=A1      11=B2      12=A1      13=B1      14=A2  
    15=B1      16=A1      17=B2      18=A1      19=B1      20=A1      21=A1  
    22=A1      23=A1      24=A1      25=A1      26=A1  
 ...... END OF INITIAL ORBITAL SELECTION ......
 STEP CPU TIME =     0.01 TOTAL CPU TIME =        0.0 (    0.0 MIN)
 TOTAL WALL CLOCK TIME=        0.0 SECONDS, CPU UTILIZATION IS  33.33%

                    ----------------------
                    AO INTEGRAL TECHNOLOGY
                    ----------------------
     S,P,L SHELL ROTATED AXIS INTEGRALS, REPROGRAMMED BY
        KAZUYA ISHIMURA (IMS) AND JOSE SIERRA (SYNSTAR).
     S,P,D,L SHELL ROTATED AXIS INTEGRALS PROGRAMMED BY
        KAZUYA ISHIMURA (INSTITUTE FOR MOLECULAR SCIENCE).
     S,P,D,F,G SHELL TO TOTAL QUARTET ANGULAR MOMENTUM SUM 5,
        ERIC PROGRAM BY GRAHAM FLETCHER (ELORET AND NASA ADVANCED
        SUPERCOMPUTING DIVISION, AMES RESEARCH CENTER).
     S,P,D,F,G,L SHELL GENERAL RYS QUADRATURE PROGRAMMED BY
        MICHEL DUPUIS (PACIFIC NORTHWEST NATIONAL LABORATORY).

          --------------------
          2 ELECTRON INTEGRALS
          --------------------

 THE -PK- OPTION IS OFF, THE INTEGRALS ARE NOT IN SUPERMATRIX FORM.
 STORING   15000 INTEGRALS/RECORD ON DISK, USING 12 BYTES/INTEGRAL.
 TWO ELECTRON INTEGRAL EVALUATION REQUIRES   90606 WORDS OF MEMORY.
 II,JST,KST,LST =  1  1  1  1 NREC =         1 INTLOC =    1
 II,JST,KST,LST =  2  1  1  1 NREC =         1 INTLOC =    2
 II,JST,KST,LST =  3  1  1  1 NREC =         1 INTLOC =    7
 II,JST,KST,LST =  4  1  1  1 NREC =         1 INTLOC =   22
 II,JST,KST,LST =  5  1  1  1 NREC =         1 INTLOC =   56
 II,JST,KST,LST =  6  1  1  1 NREC =         1 INTLOC =  125
 II,JST,KST,LST =  7  1  1  1 NREC =         1 INTLOC =  329
 II,JST,KST,LST =  8  1  1  1 NREC =         1 INTLOC =  776
 II,JST,KST,LST =  9  1  1  1 NREC =         1 INTLOC = 2864
 II,JST,KST,LST = 10  1  1  1 NREC =         1 INTLOC = 2864
 II,JST,KST,LST = 11  1  1  1 NREC =         1 INTLOC = 2864
 II,JST,KST,LST = 12  1  1  1 NREC =         1 INTLOC = 2864
 II,JST,KST,LST = 13  1  1  1 NREC =         1 INTLOC = 2864
 II,JST,KST,LST = 14  1  1  1 NREC =         1 INTLOC = 2864
 II,JST,KST,LST = 15  1  1  1 NREC =         1 INTLOC = 2864
 II,JST,KST,LST = 16  1  1  1 NREC =         1 INTLOC = 5168
 II,JST,KST,LST = 17  1  1  1 NREC =         1 INTLOC = 8436
 II,JST,KST,LST = 18  1  1  1 NREC =         1 INTLOC =12902
 II,JST,KST,LST = 19  1  1  1 NREC =         3 INTLOC = 1050
 II,JST,KST,LST = 20  1  1  1 NREC =         5 INTLOC = 2386
 TOTAL NUMBER OF NONZERO TWO-ELECTRON INTEGRALS =              180313
         13 INTEGRAL RECORDS WERE STORED ON DISK FILE  8.
  ...... END OF TWO-ELECTRON INTEGRALS .....
 STEP CPU TIME =     0.17 TOTAL CPU TIME =        0.2 (    0.0 MIN)
 TOTAL WALL CLOCK TIME=        0.2 SECONDS, CPU UTILIZATION IS  94.74%

          --------------------------
               R-PBE SCF CALCULATION
          --------------------------

     NUCLEAR ENERGY =       127.5003358739
     MAXIT =   30     NPUNCH=    2
     EXTRAP=T  DAMP=F  SHIFT=F  RSTRCT=F  DIIS=T  DEM=F  SOSCF=F
         DENSITY MATRIX CONVERGENCE THRESHOLD=  1.00E-05
     COARSE -> FINE DFT GRID SWITCH THRESHOLD=  3.00E-04 (SWITCH IN $DFT)
                   HF -> DFT SWITCH THRESHOLD=  5.00E-03 (SWOFF IN $DFT)
     MEMORY REQUIRED FOR RHF ITERS=    183108 WORDS.

 DFT CODE IS SWITCHING FROM THE FINE GRID NRAD= 96,  NLEB=  302
                      TO THE COARSE GRID NRAD0= 24, NLEB0=  110

     EXCHANGE FUNCTIONAL   =PBE       
     CORRELATION FUNCTIONAL=PBE       
     DFT THRESHOLD         =.460E-07
     GRID CHANGE THRESHOLD =.300E-03
 FOR AN EULER-MACLAURIN QUADRATURE USING  96 RADIAL POINTS:
 SMALLEST GAUSSIAN PRIMITIVE EXPONENT=        0.1313100000 OF TYPE -P-
 ON ATOM NUMBER   1 HAS RADIAL NORMALIZATION=  1.000000
  LARGEST GAUSSIAN PRIMITIVE EXPONENT=    55510.0000000000 OF TYPE -S-
 ON ATOM NUMBER   1 HAS RADIAL NORMALIZATION=  0.999999
 DFT IS SWITCHED OFF, PERFORMING PURE SCF UNTIL SWOFF THRESHOLD IS REACHED.

 ITER EX DEM     TOTAL ENERGY        E CHANGE  DENSITY CHANGE    DIIS ERROR
   1  0  0     -545.5023890341  -545.5023890341   0.537676540   1.359036098
          * * *   INITIATING DIIS PROCEDURE   * * *
   2  1  0     -546.6583472071    -1.1559581730   0.893061492   0.183423824
   3  2  0     -546.7779075858    -0.1195603787   0.163151749   0.100475161
   4  3  0     -546.8101326009    -0.0322250150   0.227623240   0.030989340
   5  4  0     -546.8175867859    -0.0074541851   0.143713496   0.012000961
   6  5  0     -546.8191939185    -0.0016071325   0.033015211   0.002919069
   7  6  0     -546.8193030342    -0.0001091158   0.003598349   0.000401721
 CONVERGED TO SWOFF, SO DFT CALCULATION IS NOW SWITCHED ON.
          * * *   INITIATING DIIS PROCEDURE   * * *
   8  7  0     -547.8695764630    -1.0502734288   0.216547672   0.095999404
   9  8  0     -547.8854261982    -0.0158497352   0.081425424   0.043458417
  10  9  0     -547.8848836500     0.0005425482   0.033948790   0.043392755
  11 10  0     -547.8907713355    -0.0058876856   0.010404618   0.007740448
  12 11  0     -547.8908905751    -0.0001192396   0.000736215   0.000555678
  13 12  0     -547.8908910610    -0.0000004859   0.000475446   0.000042203
  14 13  0     -547.8908910683    -0.0000000073   0.000123597   0.000015029
 DFT CODE IS SWITCHING BACK TO THE FINE GRID
          * * *   INITIATING DIIS PROCEDURE   * * *
  15 14  0     -547.8930560204    -0.0021649520   0.014406795   0.007222990
  16 15  0     -547.8931354536    -0.0000794332   0.004882564   0.004982265
  17 16  0     -547.8931592665    -0.0000238129   0.002496129   0.003486812
  18 17  0     -547.8931829011    -0.0000236346   0.001544402   0.000249500
  19 18  0     -547.8931830994    -0.0000001983   0.000143128   0.000066004
  20 19  0     -547.8931831121    -0.0000000127   0.000035744   0.000003136
  21 20  0     -547.8931831121     0.0000000000   0.000009625   0.000000862
  22 21  0     -547.8931831121     0.0000000000   0.000000384   0.000000119

          -----------------
          DENSITY CONVERGED
          -----------------
     TIME TO FORM FOCK OPERATORS=       4.5 SECONDS (       0.2 SEC/ITER)
     TIME TO SOLVE SCF EQUATIONS=       0.0 SECONDS (       0.0 SEC/ITER)

 FINAL R-PBE ENERGY IS     -547.8931831121 AFTER  22 ITERATIONS
 DFT EXCHANGE + CORRELATION ENERGY =       -43.0388103568
 TOTAL ELECTRON NUMBER             =        32.0000003132

          ------------
          EIGENVECTORS
          ------------

                      1          2          3          4          5
                  -88.1593   -18.7775   -18.7775    -7.8078    -5.8327
                     A1         A1         B1         A1         B1  
    1  S  1  S    1.002992  -0.000077   0.000000  -0.273772   0.000000
    2  S  1  S   -0.010140   0.000707   0.000000   1.039255   0.000000
    3  S  1  S    0.002194  -0.000481   0.000000   0.043656   0.000000
    4  S  1  S   -0.000125   0.009677   0.000000  -0.006324   0.000000
    5  S  1  X    0.000000   0.000000  -0.000314   0.000000   0.994312
    6  S  1  Y    0.000000   0.000000   0.000000   0.000000   0.000000
    7  S  1  Z    0.000061   0.000006   0.000000   0.015627   0.000000
    8  S  1  X    0.000000   0.000000   0.000984   0.000000   0.012746
    9  S  1  Y    0.000000   0.000000   0.000000   0.000000   0.000000
   10  S  1  Z    0.000157   0.000288   0.000000   0.002486   0.000000
   11  S  1  X    0.000000   0.000000  -0.007994   0.000000  -0.000434
   12  S  1  Y    0.000000   0.000000   0.000000   0.000000   0.000000
   13  S  1  Z    0.000042   0.002893   0.000000  -0.000170   0.000000
   14  S  1 XX    0.000452  -0.002827   0.000000   0.003979   0.000000
   15  S  1 YY   -0.000237   0.001255   0.000000  -0.001999   0.000000
   16  S  1 ZZ   -0.000216   0.001572   0.000000  -0.001979   0.000000
   17  S  1 XY    0.000000   0.000000   0.000000   0.000000   0.000000
   18  S  1 XZ    0.000000   0.000000   0.001617   0.000000   0.002580
   19  S  1 YZ    0.000000   0.000000   0.000000   0.000000   0.000000
   20  O  2  S    0.000009   0.703214   0.703198  -0.001147   0.002436
   21  O  2  S   -0.000044   0.027346   0.027197   0.000172  -0.002852
   22  O  2  S   -0.000597  -0.013224  -0.014515  -0.003684   0.000579
   23  O  2  X   -0.000208   0.002173   0.001726   0.000462  -0.004251
   24  O  2  Y    0.000000   0.000000   0.000000   0.000000   0.000000
   25  O  2  Z    0.000074  -0.000394  -0.000259   0.000008   0.001479
   26  O  2  X   -0.000395  -0.003701  -0.001620  -0.003086   0.000757
   27  O  2  Y    0.000000   0.000000   0.000000   0.000000   0.000000
   28  O  2  Z    0.000139  -0.000538   0.001601   0.001139   0.000275
   29  O  2 XX   -0.000095  -0.000019   0.000506   0.001193  -0.001862
   30  O  2 YY    0.000067  -0.000130  -0.000102  -0.000572   0.001204
   31  O  2 ZZ    0.000029   0.000149  -0.000404  -0.000620   0.000658
   32  O  2 XY    0.000000   0.000000   0.000000   0.000000   0.000000
   33  O  2 XZ    0.000093  -0.000540   0.000276  -0.000264   0.001476
   34  O  2 YZ    0.000000   0.000000   0.000000   0.000000   0.000000
   35  O  3  S    0.000009   0.703214  -0.703198  -0.001147  -0.002436
   36  O  3  S   -0.000044   0.027346  -0.027197   0.000172   0.002852
   37  O  3  S   -0.000597  -0.013224   0.014515  -0.003684  -0.000579
   38  O  3  X    0.000208  -0.002173   0.001726  -0.000462  -0.004251
   39  O  3  Y    0.000000   0.000000   0.000000   0.000000   0.000000
   40  O  3  Z    0.000074  -0.000394   0.000259   0.000008  -0.001479
   41  O  3  X    0.000395   0.003701  -0.001620   0.003086   0.000757
   42  O  3  Y    0.000000   0.000000   0.000000   0.000000   0.000000
   43  O  3  Z    0.000139  -0.000538  -0.001601   0.001139  -0.000275
   44  O  3 XX   -0.000095  -0.000019  -0.000506   0.001193   0.001862
   45  O  3 YY    0.000067  -0.000130   0.000102  -0.000572  -0.001204
   46  O  3 ZZ    0.000029   0.000149   0.000404  -0.000620  -0.000658
   47  O  3 XY    0.000000   0.000000   0.000000   0.000000   0.000000
   48  O  3 XZ   -0.000093   0.000540   0.000276   0.000264   0.001476
   49  O  3 YZ    0.000000   0.000000   0.000000   0.000000   0.000000

                      6          7          8          9         10
                   -5.8218    -5.8169    -1.1832    -1.0886    -0.5226
                     B2         A1         A1         B1         B2  
    1  S  1  S    0.000000   0.004654   0.061225   0.000000   0.000000
    2  S  1  S    0.000000  -0.017322  -0.192318   0.000000   0.000000
    3  S  1  S    0.000000   0.001137   0.319389   0.000000   0.000000
    4  S  1  S    0.000000  -0.000961   0.093092   0.000000   0.000000
    5  S  1  X    0.000000   0.000000   0.000000  -0.209365   0.000000
    6  S  1  Y    0.996489   0.000000   0.000000   0.000000  -0.204811
    7  S  1  Z    0.000000   0.996314  -0.056178   0.000000   0.000000
    8  S  1  X    0.000000   0.000000   0.000000   0.342992   0.000000
    9  S  1  Y    0.009967   0.000000   0.000000   0.000000   0.450441
   10  S  1  Z    0.000000   0.009803   0.091455   0.000000   0.000000
   11  S  1  X    0.000000   0.000000   0.000000  -0.002403   0.000000
   12  S  1  Y   -0.000592   0.000000   0.000000   0.000000   0.145750
   13  S  1  Z    0.000000  -0.000562  -0.008930   0.000000   0.000000
   14  S  1 XX    0.000000  -0.000730   0.088473   0.000000   0.000000
   15  S  1 YY    0.000000  -0.000703  -0.048277   0.000000   0.000000
   16  S  1 ZZ    0.000000   0.001433  -0.040196   0.000000   0.000000
   17  S  1 XY    0.000000   0.000000   0.000000   0.000000   0.000000
   18  S  1 XZ    0.000000   0.000000   0.000000   0.067806   0.000000
   19  S  1 YZ    0.001206   0.000000   0.000000   0.000000   0.050657
   20  O  2  S    0.000000  -0.000608  -0.128101   0.145882   0.000000
   21  O  2  S    0.000000   0.000884   0.236622  -0.279636   0.000000
   22  O  2  S    0.000000   0.000390   0.223567  -0.266644   0.000000
   23  O  2  X    0.000000   0.001423   0.148097  -0.146782   0.000000
   24  O  2  Y    0.000640   0.000000   0.000000   0.000000   0.341001
   25  O  2  Z    0.000000   0.000246  -0.026073   0.036235   0.000000
   26  O  2  X    0.000000  -0.000071   0.038199  -0.016877   0.000000
   27  O  2  Y   -0.000047   0.000000   0.000000   0.000000   0.179803
   28  O  2  Z    0.000000  -0.000091   0.002976   0.008919   0.000000
   29  O  2 XX    0.000000   0.000725   0.021885  -0.015574   0.000000
   30  O  2 YY    0.000000  -0.000180  -0.009607   0.009387   0.000000
   31  O  2 ZZ    0.000000  -0.000545  -0.012278   0.006188   0.000000
   32  O  2 XY    0.000646   0.000000   0.000000   0.000000   0.031690
   33  O  2 XZ    0.000000   0.000317  -0.003112   0.011566   0.000000
   34  O  2 YZ   -0.000256   0.000000   0.000000   0.000000  -0.006663
   35  O  3  S    0.000000  -0.000608  -0.128101  -0.145882   0.000000
   36  O  3  S    0.000000   0.000884   0.236622   0.279636   0.000000
   37  O  3  S    0.000000   0.000390   0.223567   0.266644   0.000000
   38  O  3  X    0.000000  -0.001423  -0.148097  -0.146782   0.000000
   39  O  3  Y    0.000640   0.000000   0.000000   0.000000   0.341001
   40  O  3  Z    0.000000   0.000246  -0.026073  -0.036235   0.000000
   41  O  3  X    0.000000   0.000071  -0.038199  -0.016877   0.000000
   42  O  3  Y   -0.000047   0.000000   0.000000   0.000000   0.179803
   43  O  3  Z    0.000000  -0.000091   0.002976  -0.008919   0.000000
   44  O  3 XX    0.000000   0.000725   0.021885   0.015574   0.000000
   45  O  3 YY    0.000000  -0.000180  -0.009607  -0.009387   0.000000
   46  O  3 ZZ    0.000000  -0.000545  -0.012278  -0.006188   0.000000
   47  O  3 XY   -0.000646   0.000000   0.000000   0.000000  -0.031690
   48  O  3 XZ    0.000000  -0.000317   0.003112   0.011566   0.000000
   49  O  3 YZ   -0.000256   0.000000   0.000000   0.000000  -0.006663

                     11         12         13         14         15
                   -0.5201    -0.5118    -0.4522    -0.4030    -0.3895
                     A1         A1         B1         A2         B1  
    1  S  1  S   -0.050216   0.006891   0.000000   0.000000   0.000000
    2  S  1  S    0.133523  -0.016440   0.000000   0.000000   0.000000
    3  S  1  S   -0.323679   0.045675   0.000000   0.000000   0.000000
    4  S  1  S   -0.172084  -0.046737   0.000000   0.000000   0.000000
    5  S  1  X    0.000000   0.000000   0.159938   0.000000  -0.000833
    6  S  1  Y    0.000000   0.000000   0.000000   0.000000   0.000000
    7  S  1  Z   -0.057344  -0.185759   0.000000   0.000000   0.000000
    8  S  1  X    0.000000   0.000000  -0.331799   0.000000  -0.002159
    9  S  1  Y    0.000000   0.000000   0.000000   0.000000   0.000000
   10  S  1  Z    0.122836   0.405376   0.000000   0.000000   0.000000
   11  S  1  X    0.000000   0.000000   0.060717   0.000000   0.037657
   12  S  1  Y    0.000000   0.000000   0.000000   0.000000   0.000000
   13  S  1  Z    0.073855   0.117084   0.000000   0.000000   0.000000
   14  S  1 XX   -0.005901  -0.082829   0.000000   0.000000   0.000000
   15  S  1 YY   -0.014860   0.001509   0.000000   0.000000   0.000000
   16  S  1 ZZ    0.020761   0.081320   0.000000   0.000000   0.000000
   17  S  1 XY    0.000000   0.000000   0.000000  -0.190795   0.000000
   18  S  1 XZ    0.000000   0.000000  -0.013314   0.000000  -0.183679
   19  S  1 YZ    0.000000   0.000000   0.000000   0.000000   0.000000
   20  O  2  S   -0.092070   0.040361   0.065597   0.000000   0.005012
   21  O  2  S    0.190059  -0.077507  -0.137034   0.000000  -0.022085
   22  O  2  S    0.335105  -0.122452  -0.261842   0.000000  -0.027539
   23  O  2  X   -0.245404   0.202492   0.373609   0.000000   0.197367
   24  O  2  Y    0.000000   0.000000   0.000000   0.455455   0.000000
   25  O  2  Z    0.178623   0.283732  -0.178020   0.000000   0.415369
   26  O  2  X   -0.129320   0.118770   0.175544   0.000000   0.115121
   27  O  2  Y    0.000000   0.000000   0.000000   0.282439   0.000000
   28  O  2  Z    0.088410   0.148016  -0.104145   0.000000   0.260883
   29  O  2 XX   -0.011416   0.019304   0.019265   0.000000   0.013034
   30  O  2 YY    0.008497  -0.005955  -0.012378   0.000000  -0.003693
   31  O  2 ZZ    0.002919  -0.013349  -0.006887   0.000000  -0.009340
   32  O  2 XY    0.000000   0.000000   0.000000   0.021847   0.000000
   33  O  2 XZ    0.015459   0.020201  -0.016031   0.000000   0.020808
   34  O  2 YZ    0.000000   0.000000   0.000000  -0.002807   0.000000
   35  O  3  S   -0.092070   0.040361  -0.065597   0.000000  -0.005012
   36  O  3  S    0.190059  -0.077507   0.137034   0.000000   0.022085
   37  O  3  S    0.335105  -0.122452   0.261842   0.000000   0.027539
   38  O  3  X    0.245404  -0.202492   0.373609   0.000000   0.197367
   39  O  3  Y    0.000000   0.000000   0.000000  -0.455455   0.000000
   40  O  3  Z    0.178623   0.283732   0.178020   0.000000  -0.415369
   41  O  3  X    0.129320  -0.118770   0.175544   0.000000   0.115121
   42  O  3  Y    0.000000   0.000000   0.000000  -0.282439   0.000000
   43  O  3  Z    0.088410   0.148016   0.104145   0.000000  -0.260883
   44  O  3 XX   -0.011416   0.019304  -0.019265   0.000000  -0.013034
   45  O  3 YY    0.008497  -0.005955   0.012378   0.000000   0.003693
   46  O  3 ZZ    0.002919  -0.013349   0.006887   0.000000   0.009340
   47  O  3 XY    0.000000   0.000000   0.000000   0.021847   0.000000
   48  O  3 XZ   -0.015459  -0.020201  -0.016031   0.000000   0.020808
   49  O  3 YZ    0.000000   0.000000   0.000000   0.002807   0.000000

                     16         17         18         19         20
                   -0.1923    -0.0432     0.0339     0.2203     0.3436
                     A1         B2         A1         B1         B2  
    1  S  1  S    0.025453   0.000000   0.004879   0.000000   0.000000
    2  S  1  S   -0.144631   0.000000  -0.099178   0.000000   0.000000
    3  S  1  S    0.084411   0.000000  -0.065995   0.000000   0.000000
    4  S  1  S    1.100350   0.000000   1.111976   0.000000   0.000000
    5  S  1  X    0.000000   0.000000   0.000000  -0.029397   0.000000
    6  S  1  Y    0.000000  -0.203108   0.000000   0.000000   0.291788
    7  S  1  Z    0.121446   0.000000  -0.153383   0.000000   0.000000
    8  S  1  X    0.000000   0.000000   0.000000   0.145951   0.000000
    9  S  1  Y    0.000000   0.541567   0.000000   0.000000  -1.107273
   10  S  1  Z   -0.276745   0.000000   0.435901   0.000000   0.000000
   11  S  1  X    0.000000   0.000000   0.000000   2.085767   0.000000
   12  S  1  Y    0.000000   0.759375   0.000000   0.000000   1.191803
   13  S  1  Z   -0.154580   0.000000   0.915178   0.000000   0.000000
   14  S  1 XX   -0.239626   0.000000  -0.138099   0.000000   0.000000
   15  S  1 YY    0.125169   0.000000   0.142027   0.000000   0.000000
   16  S  1 ZZ    0.114456   0.000000  -0.003929   0.000000   0.000000
   17  S  1 XY    0.000000   0.000000   0.000000   0.000000   0.000000
   18  S  1 XZ    0.000000   0.000000   0.000000  -0.061770   0.000000
   19  S  1 YZ    0.000000  -0.053270   0.000000   0.000000  -0.123585
   20  O  2  S    0.043315   0.000000   0.047966  -0.076779   0.000000
   21  O  2  S   -0.071245   0.000000  -0.085213   0.094675   0.000000
   22  O  2  S   -0.278016   0.000000  -0.502861   1.244869   0.000000
   23  O  2  X   -0.215519   0.000000  -0.222455  -0.046786   0.000000
   24  O  2  Y    0.000000  -0.392471   0.000000   0.000000  -0.003863
   25  O  2  Z    0.248989   0.000000  -0.285541  -0.113392   0.000000
   26  O  2  X   -0.178012   0.000000  -0.300173   0.161044   0.000000
   27  O  2  Y    0.000000  -0.424620   0.000000   0.000000  -0.029142
   28  O  2  Z    0.208936   0.000000  -0.328713  -0.218493   0.000000
   29  O  2 XX   -0.020787   0.000000  -0.016837   0.025541   0.000000
   30  O  2 YY    0.010221   0.000000   0.012300  -0.012454   0.000000
   31  O  2 ZZ    0.010566   0.000000   0.004537  -0.013087   0.000000
   32  O  2 XY    0.000000  -0.004531   0.000000   0.000000  -0.041554
   33  O  2 XZ    0.008225   0.000000   0.004838  -0.010906   0.000000
   34  O  2 YZ    0.000000  -0.001899   0.000000   0.000000   0.005756
   35  O  3  S    0.043315   0.000000   0.047966   0.076779   0.000000
   36  O  3  S   -0.071245   0.000000  -0.085213  -0.094675   0.000000
   37  O  3  S   -0.278016   0.000000  -0.502861  -1.244869   0.000000
   38  O  3  X    0.215519   0.000000   0.222455  -0.046786   0.000000
   39  O  3  Y    0.000000  -0.392471   0.000000   0.000000  -0.003863
   40  O  3  Z    0.248989   0.000000  -0.285541   0.113392   0.000000
   41  O  3  X    0.178012   0.000000   0.300173   0.161044   0.000000
   42  O  3  Y    0.000000  -0.424620   0.000000   0.000000  -0.029142
   43  O  3  Z    0.208936   0.000000  -0.328713   0.218493   0.000000
   44  O  3 XX   -0.020787   0.000000  -0.016837  -0.025541   0.000000
   45  O  3 YY    0.010221   0.000000   0.012300   0.012454   0.000000
   46  O  3 ZZ    0.010566   0.000000   0.004537   0.013087   0.000000
   47  O  3 XY    0.000000   0.004531   0.000000   0.000000   0.041554
   48  O  3 XZ   -0.008225   0.000000  -0.004838  -0.010906   0.000000
   49  O  3 YZ    0.000000  -0.001899   0.000000   0.000000   0.005756

                     21         22         23         24         25
                    0.3558     0.4426     0.5331     0.5381     0.5965
                     A1         A1         B2         A1         B1  
    1  S  1  S    0.000604  -0.077750   0.000000   0.015915   0.000000
    2  S  1  S    0.016951  -0.149014   0.000000   0.023121   0.000000
    3  S  1  S    0.031949  -1.017641   0.000000   0.203148   0.000000
    4  S  1  S    0.488168   2.835391   0.000000  -0.213140   0.000000
    5  S  1  X    0.000000   0.000000   0.000000   0.000000   0.002255
    6  S  1  Y    0.000000   0.000000   0.030045   0.000000   0.000000
    7  S  1  Z    0.284665  -0.062855   0.000000   0.021900   0.000000
    8  S  1  X    0.000000   0.000000   0.000000   0.000000   0.386692
    9  S  1  Y    0.000000   0.000000  -0.123627   0.000000   0.000000
   10  S  1  Z   -1.049166   0.336716   0.000000  -0.098349   0.000000
   11  S  1  X    0.000000   0.000000   0.000000   0.000000   0.308687
   12  S  1  Y    0.000000   0.000000   0.235308   0.000000   0.000000
   13  S  1  Z    1.153290  -0.062479   0.000000   0.236992   0.000000
   14  S  1 XX    0.298057   0.556171   0.000000  -0.078193   0.000000
   15  S  1 YY   -0.083116  -0.412503   0.000000  -0.794428   0.000000
   16  S  1 ZZ   -0.214941  -0.143668   0.000000   0.872621   0.000000
   17  S  1 XY    0.000000   0.000000   0.000000   0.000000   0.000000
   18  S  1 XZ    0.000000   0.000000   0.000000   0.000000   0.698165
   19  S  1 YZ    0.000000   0.000000   0.972452   0.000000   0.000000
   20  O  2  S    0.004857   0.026157   0.000000   0.004345  -0.023390
   21  O  2  S    0.028860   0.001703   0.000000  -0.037515  -0.053780
   22  O  2  S   -0.390182  -1.055476   0.000000   0.036495   0.683369
   23  O  2  X    0.107677   0.272387   0.000000  -0.097611  -0.299506
   24  O  2  Y    0.000000   0.000000  -0.158940   0.000000   0.000000
   25  O  2  Z   -0.003165  -0.067352   0.000000  -0.146747   0.194170
   26  O  2  X   -0.157572  -0.686681   0.000000   0.016114   0.982224
   27  O  2  Y    0.000000   0.000000  -0.043403   0.000000   0.000000
   28  O  2  Z    0.067773   0.251585   0.000000  -0.064523   0.003406
   29  O  2 XX   -0.034302  -0.056302   0.000000   0.007212   0.007744
   30  O  2 YY    0.013104   0.029458   0.000000  -0.052366  -0.014821
   31  O  2 ZZ    0.021198   0.026843   0.000000   0.045154   0.007077
   32  O  2 XY    0.000000   0.000000   0.013167   0.000000   0.000000
   33  O  2 XZ   -0.023117   0.046937   0.000000   0.014126  -0.023965
   34  O  2 YZ    0.000000   0.000000   0.057123   0.000000   0.000000
   35  O  3  S    0.004857   0.026157   0.000000   0.004345   0.023390
   36  O  3  S    0.028860   0.001703   0.000000  -0.037515   0.053780
   37  O  3  S   -0.390182  -1.055476   0.000000   0.036495  -0.683369
   38  O  3  X   -0.107677  -0.272387   0.000000   0.097611  -0.299506
   39  O  3  Y    0.000000   0.000000  -0.158940   0.000000   0.000000
   40  O  3  Z   -0.003165  -0.067352   0.000000  -0.146747  -0.194170
   41  O  3  X    0.157572   0.686681   0.000000  -0.016114   0.982224
   42  O  3  Y    0.000000   0.000000  -0.043403   0.000000   0.000000
   43  O  3  Z    0.067773   0.251585   0.000000  -0.064523  -0.003406
   44  O  3 XX   -0.034302  -0.056302   0.000000   0.007212  -0.007744
   45  O  3 YY    0.013104   0.029458   0.000000  -0.052366   0.014821
   46  O  3 ZZ    0.021198   0.026843   0.000000   0.045154  -0.007077
   47  O  3 XY    0.000000   0.000000  -0.013167   0.000000   0.000000
   48  O  3 XZ    0.023117  -0.046937   0.000000  -0.014126  -0.023965
   49  O  3 YZ    0.000000   0.000000   0.057123   0.000000   0.000000

                     26         27         28         29         30
                    0.6224     0.6695     0.6785     0.7838     0.7869
                     A1         B1         A2         A2         B1  
    1  S  1  S    0.096814   0.000000   0.000000   0.000000   0.000000
    2  S  1  S    0.466593   0.000000   0.000000   0.000000   0.000000
    3  S  1  S    1.653743   0.000000   0.000000   0.000000   0.000000
    4  S  1  S    0.284739   0.000000   0.000000   0.000000   0.000000
    5  S  1  X    0.000000  -0.205717   0.000000   0.000000  -0.179567
    6  S  1  Y    0.000000   0.000000   0.000000   0.000000   0.000000
    7  S  1  Z   -0.055600   0.000000   0.000000   0.000000   0.000000
    8  S  1  X    0.000000   1.021587   0.000000   0.000000   0.831182
    9  S  1  Y    0.000000   0.000000   0.000000   0.000000   0.000000
   10  S  1  Z    0.333513   0.000000   0.000000   0.000000   0.000000
   11  S  1  X    0.000000  -0.303873   0.000000   0.000000  -0.623694
   12  S  1  Y    0.000000   0.000000   0.000000   0.000000   0.000000
   13  S  1  Z    0.066775   0.000000   0.000000   0.000000   0.000000
   14  S  1 XX    0.175246   0.000000   0.000000   0.000000   0.000000
   15  S  1 YY   -0.086429   0.000000   0.000000   0.000000   0.000000
   16  S  1 ZZ   -0.088818   0.000000   0.000000   0.000000   0.000000
   17  S  1 XY    0.000000   0.000000   0.738978   0.784244   0.000000
   18  S  1 XZ    0.000000  -0.533315   0.000000   0.000000  -0.180585
   19  S  1 YZ    0.000000   0.000000   0.000000   0.000000   0.000000
   20  O  2  S    0.054430  -0.037200   0.000000   0.000000  -0.013803
   21  O  2  S   -0.078708   0.078501   0.000000   0.000000  -0.013484
   22  O  2  S   -0.653346   0.213041   0.000000   0.000000   0.087409
   23  O  2  X    0.194183  -0.035114   0.000000   0.000000  -0.064063
   24  O  2  Y    0.000000   0.000000  -0.339930   0.583908   0.000000
   25  O  2  Z    0.031726   0.223228   0.000000   0.000000  -0.597194
   26  O  2  X   -1.142482   0.561030   0.000000   0.000000   0.593678
   27  O  2  Y    0.000000   0.000000   0.852677  -0.222108   0.000000
   28  O  2  Z    0.189123  -0.746352   0.000000   0.000000   0.497168
   29  O  2 XX    0.014433  -0.007755   0.000000   0.000000  -0.028077
   30  O  2 YY   -0.002854   0.021386   0.000000   0.000000   0.028894
   31  O  2 ZZ   -0.011580  -0.013631   0.000000   0.000000  -0.000817
   32  O  2 XY    0.000000   0.000000  -0.037885  -0.052266   0.000000
   33  O  2 XZ    0.005473   0.048002   0.000000   0.000000   0.023808
   34  O  2 YZ    0.000000   0.000000   0.018864   0.036691   0.000000
   35  O  3  S    0.054430   0.037200   0.000000   0.000000   0.013803
   36  O  3  S   -0.078708  -0.078501   0.000000   0.000000   0.013484
   37  O  3  S   -0.653346  -0.213041   0.000000   0.000000  -0.087409
   38  O  3  X   -0.194183  -0.035114   0.000000   0.000000  -0.064063
   39  O  3  Y    0.000000   0.000000   0.339930  -0.583908   0.000000
   40  O  3  Z    0.031726  -0.223228   0.000000   0.000000   0.597194
   41  O  3  X    1.142482   0.561030   0.000000   0.000000   0.593678
   42  O  3  Y    0.000000   0.000000  -0.852677   0.222108   0.000000
   43  O  3  Z    0.189123   0.746352   0.000000   0.000000  -0.497168
   44  O  3 XX    0.014433   0.007755   0.000000   0.000000   0.028077
   45  O  3 YY   -0.002854  -0.021386   0.000000   0.000000  -0.028894
   46  O  3 ZZ   -0.011580   0.013631   0.000000   0.000000   0.000817
   47  O  3 XY    0.000000   0.000000  -0.037885  -0.052266   0.000000
   48  O  3 XZ   -0.005473   0.048002   0.000000   0.000000   0.023808
   49  O  3 YZ    0.000000   0.000000  -0.018864  -0.036691   0.000000

                     31         32         33         34         35
                    0.8554     0.8849     1.3387     1.5716     1.7565
                     A1         B2         B1         A1         B1  
    1  S  1  S    0.020539   0.000000   0.000000   0.026600   0.000000
    2  S  1  S    0.100533   0.000000   0.000000  -0.026212   0.000000
    3  S  1  S    0.356304   0.000000   0.000000   0.282862   0.000000
    4  S  1  S   -0.115030   0.000000   0.000000   2.548030   0.000000
    5  S  1  X    0.000000   0.000000  -0.302032   0.000000  -0.017846
    6  S  1  Y    0.000000  -0.037819   0.000000   0.000000   0.000000
    7  S  1  Z   -0.049757   0.000000   0.000000  -0.071042   0.000000
    8  S  1  X    0.000000   0.000000   1.185732   0.000000   0.393582
    9  S  1  Y    0.000000   0.072150   0.000000   0.000000   0.000000
   10  S  1  Z    0.142106   0.000000   0.000000   0.403201   0.000000
   11  S  1  X    0.000000   0.000000   0.254653   0.000000   1.785151
   12  S  1  Y    0.000000  -1.062850   0.000000   0.000000   0.000000
   13  S  1  Z   -1.032476   0.000000   0.000000   0.550940   0.000000
   14  S  1 XX    0.177039   0.000000   0.000000   0.982863   0.000000
   15  S  1 YY    0.051923   0.000000   0.000000  -0.563974   0.000000
   16  S  1 ZZ   -0.228962   0.000000   0.000000  -0.418889   0.000000
   17  S  1 XY    0.000000   0.000000   0.000000   0.000000   0.000000
   18  S  1 XZ    0.000000   0.000000   0.662706   0.000000   0.133261
   19  S  1 YZ    0.000000  -0.164659   0.000000   0.000000   0.000000
   20  O  2  S   -0.003576   0.000000  -0.036315   0.015376  -0.008371
   21  O  2  S    0.062436   0.000000   0.300998   0.708922  -1.299414
   22  O  2  S   -0.074640   0.000000   0.530560  -2.312138   2.597011
   23  O  2  X   -0.222414   0.000000   0.672270  -0.454082   0.130890
   24  O  2  Y    0.000000  -0.615368   0.000000   0.000000   0.000000
   25  O  2  Z   -0.554009   0.000000   0.014685   0.286849   0.043564
   26  O  2  X    0.122674   0.000000  -0.037284  -0.609937   0.279507
   27  O  2  Y    0.000000   1.127219   0.000000   0.000000   0.000000
   28  O  2  Z    1.087980   0.000000  -0.021208  -0.095144  -0.306140
   29  O  2 XX   -0.000804   0.000000  -0.154767   0.150882  -0.093617
   30  O  2 YY   -0.001509   0.000000   0.017749  -0.123311   0.081265
   31  O  2 ZZ    0.002312   0.000000   0.137018  -0.027571   0.012352
   32  O  2 XY    0.000000  -0.047041   0.000000   0.000000   0.000000
   33  O  2 XZ   -0.034302   0.000000  -0.048206  -0.089496   0.168933
   34  O  2 YZ    0.000000   0.004129   0.000000   0.000000   0.000000
   35  O  3  S   -0.003576   0.000000   0.036315   0.015376   0.008371
   36  O  3  S    0.062436   0.000000  -0.300998   0.708922   1.299414
   37  O  3  S   -0.074640   0.000000  -0.530560  -2.312138  -2.597011
   38  O  3  X    0.222414   0.000000   0.672270   0.454082   0.130890
   39  O  3  Y    0.000000  -0.615368   0.000000   0.000000   0.000000
   40  O  3  Z   -0.554009   0.000000  -0.014685   0.286849  -0.043564
   41  O  3  X   -0.122674   0.000000  -0.037284   0.609937   0.279507
   42  O  3  Y    0.000000   1.127219   0.000000   0.000000   0.000000
   43  O  3  Z    1.087980   0.000000   0.021208  -0.095144   0.306140
   44  O  3 XX   -0.000804   0.000000   0.154767   0.150882   0.093617
   45  O  3 YY   -0.001509   0.000000  -0.017749  -0.123311  -0.081265
   46  O  3 ZZ    0.002312   0.000000  -0.137018  -0.027571  -0.012352
   47  O  3 XY    0.000000   0.047041   0.000000   0.000000   0.000000
   48  O  3 XZ    0.034302   0.000000  -0.048206   0.089496   0.168933
   49  O  3 YZ    0.000000   0.004129   0.000000   0.000000   0.000000

                     36         37         38         39         40
                    1.7974     1.9919     1.9934     2.0828     2.1191
                     A1         A2         B1         B2         A1  
    1  S  1  S   -0.019292   0.000000   0.000000   0.000000   0.002692
    2  S  1  S    0.140174   0.000000   0.000000   0.000000  -0.061680
    3  S  1  S   -0.054730   0.000000   0.000000   0.000000  -0.048054
    4  S  1  S    0.747847   0.000000   0.000000   0.000000   0.010256
    5  S  1  X    0.000000   0.000000  -0.007244   0.000000   0.000000
    6  S  1  Y    0.000000   0.000000   0.000000  -0.036991   0.000000
    7  S  1  Z    0.079676   0.000000   0.000000   0.000000  -0.011024
    8  S  1  X    0.000000   0.000000   0.006738   0.000000   0.000000
    9  S  1  Y    0.000000   0.000000   0.000000   0.190598   0.000000
   10  S  1  Z   -0.296928   0.000000   0.000000   0.000000   0.023196
   11  S  1  X    0.000000   0.000000   0.065699   0.000000   0.000000
   12  S  1  Y    0.000000   0.000000   0.000000  -0.001234   0.000000
   13  S  1  Z    0.284282   0.000000   0.000000   0.000000   0.011793
   14  S  1 XX   -0.732029   0.000000   0.000000   0.000000   0.238815
   15  S  1 YY    0.388601   0.000000   0.000000   0.000000  -0.360287
   16  S  1 ZZ    0.343428   0.000000   0.000000   0.000000   0.121472
   17  S  1 XY    0.000000   0.041930   0.000000   0.000000   0.000000
   18  S  1 XZ    0.000000   0.000000  -0.034025   0.000000   0.000000
   19  S  1 YZ    0.000000   0.000000   0.000000  -0.191253   0.000000
   20  O  2  S   -0.008339   0.000000  -0.000960   0.000000   0.001088
   21  O  2  S    1.031887   0.000000  -0.019778   0.000000  -0.205502
   22  O  2  S   -0.997378   0.000000   0.050288   0.000000   0.103237
   23  O  2  X    0.378107   0.000000   0.018908   0.000000  -0.118946
   24  O  2  Y    0.000000  -0.011995   0.000000   0.035738   0.000000
   25  O  2  Z   -0.180922   0.000000   0.017583   0.000000   0.042690
   26  O  2  X   -0.424279   0.000000  -0.030523   0.000000   0.085484
   27  O  2  Y    0.000000   0.027132   0.000000  -0.063080   0.000000
   28  O  2  Z    0.036897   0.000000  -0.036577   0.000000  -0.031078
   29  O  2 XX    0.144346   0.000000  -0.125225   0.000000  -0.000204
   30  O  2 YY    0.085527   0.000000   0.616301   0.000000   0.587476
   31  O  2 ZZ   -0.229874   0.000000  -0.491076   0.000000  -0.587272
   32  O  2 XY    0.000000   0.300127   0.000000  -0.083982   0.000000
   33  O  2 XZ    0.221282   0.000000  -0.277100   0.000000  -0.193975
   34  O  2 YZ    0.000000   0.641207   0.000000   0.711991   0.000000
   35  O  3  S   -0.008339   0.000000   0.000960   0.000000   0.001088
   36  O  3  S    1.031887   0.000000   0.019778   0.000000  -0.205502
   37  O  3  S   -0.997378   0.000000  -0.050288   0.000000   0.103237
   38  O  3  X   -0.378107   0.000000   0.018908   0.000000   0.118946
   39  O  3  Y    0.000000   0.011995   0.000000   0.035738   0.000000
   40  O  3  Z   -0.180922   0.000000  -0.017583   0.000000   0.042690
   41  O  3  X    0.424279   0.000000  -0.030523   0.000000  -0.085484
   42  O  3  Y    0.000000  -0.027132   0.000000  -0.063080   0.000000
   43  O  3  Z    0.036897   0.000000   0.036577   0.000000  -0.031078
   44  O  3 XX    0.144346   0.000000   0.125225   0.000000  -0.000204
   45  O  3 YY    0.085527   0.000000  -0.616301   0.000000   0.587476
   46  O  3 ZZ   -0.229874   0.000000   0.491076   0.000000  -0.587272
   47  O  3 XY    0.000000   0.300127   0.000000   0.083982   0.000000
   48  O  3 XZ   -0.221282   0.000000  -0.277100   0.000000   0.193975
   49  O  3 YZ    0.000000  -0.641207   0.000000   0.711991   0.000000

                     41         42         43         44         45
                    2.3100     2.6092     2.6460     2.7253     2.8890
                     B2         A1         B1         A2         A1  
    1  S  1  S    0.000000  -0.016313   0.000000   0.000000  -0.087247
    2  S  1  S    0.000000  -0.279330   0.000000   0.000000  -0.528964
    3  S  1  S    0.000000  -0.578356   0.000000   0.000000  -1.816061
    4  S  1  S    0.000000  -0.668861   0.000000   0.000000  -1.647497
    5  S  1  X    0.000000   0.000000   0.000348   0.000000   0.000000
    6  S  1  Y    0.098626   0.000000   0.000000   0.000000   0.000000
    7  S  1  Z    0.000000   0.084354   0.000000   0.000000   0.025591
    8  S  1  X    0.000000   0.000000  -0.367686   0.000000   0.000000
    9  S  1  Y   -0.512845   0.000000   0.000000   0.000000   0.000000
   10  S  1  Z    0.000000  -0.605521   0.000000   0.000000  -0.445058
   11  S  1  X    0.000000   0.000000  -0.221222   0.000000   0.000000
   12  S  1  Y   -0.148851   0.000000   0.000000   0.000000   0.000000
   13  S  1  Z    0.000000  -0.313081   0.000000   0.000000  -0.053283
   14  S  1 XX    0.000000   0.497081   0.000000   0.000000  -1.392942
   15  S  1 YY    0.000000  -0.053298   0.000000   0.000000   0.682327
   16  S  1 ZZ    0.000000  -0.443783   0.000000   0.000000   0.710615
   17  S  1 XY    0.000000   0.000000   0.000000   0.986136   0.000000
   18  S  1 XZ    0.000000   0.000000   0.874084   0.000000   0.000000
   19  S  1 YZ   -0.295122   0.000000   0.000000   0.000000   0.000000
   20  O  2  S    0.000000  -0.018708   0.011856   0.000000  -0.036891
   21  O  2  S    0.000000  -0.673324   0.443823   0.000000  -0.187889
   22  O  2  S    0.000000   1.012369  -0.610232   0.000000   1.967588
   23  O  2  X    0.000000  -0.160065   0.131701   0.000000   0.494240
   24  O  2  Y   -0.068512   0.000000   0.000000   0.093948   0.000000
   25  O  2  Z    0.000000   0.029861   0.025317   0.000000  -0.188692
   26  O  2  X    0.000000   0.603086  -0.196202   0.000000   0.920036
   27  O  2  Y    0.291836   0.000000   0.000000   0.335797   0.000000
   28  O  2  Z    0.000000   0.213027   0.386763   0.000000  -0.387710
   29  O  2 XX    0.000000   0.591383   0.178859   0.000000   0.663959
   30  O  2 YY    0.000000  -0.227590   0.196085   0.000000  -0.456599
   31  O  2 ZZ    0.000000  -0.363793  -0.374944   0.000000  -0.207360
   32  O  2 XY    0.769995   0.000000   0.000000   0.811133   0.000000
   33  O  2 XZ    0.000000   0.479936   0.738381   0.000000  -0.665065
   34  O  2 YZ    0.072212   0.000000   0.000000  -0.348893   0.000000
   35  O  3  S    0.000000  -0.018708  -0.011856   0.000000  -0.036891
   36  O  3  S    0.000000  -0.673324  -0.443823   0.000000  -0.187889
   37  O  3  S    0.000000   1.012369   0.610232   0.000000   1.967588
   38  O  3  X    0.000000   0.160065   0.131701   0.000000  -0.494240
   39  O  3  Y   -0.068512   0.000000   0.000000  -0.093948   0.000000
   40  O  3  Z    0.000000   0.029861  -0.025317   0.000000  -0.188692
   41  O  3  X    0.000000  -0.603086  -0.196202   0.000000  -0.920036
   42  O  3  Y    0.291836   0.000000   0.000000  -0.335797   0.000000
   43  O  3  Z    0.000000   0.213027  -0.386763   0.000000  -0.387710
   44  O  3 XX    0.000000   0.591383  -0.178859   0.000000   0.663959
   45  O  3 YY    0.000000  -0.227590  -0.196085   0.000000  -0.456599
   46  O  3 ZZ    0.000000  -0.363793   0.374944   0.000000  -0.207360
   47  O  3 XY   -0.769995   0.000000   0.000000   0.811133   0.000000
   48  O  3 XZ    0.000000  -0.479936   0.738381   0.000000   0.665065
   49  O  3 YZ    0.072212   0.000000   0.000000   0.348893   0.000000

                     46
                    2.9810
                     B1  
    1  S  1  S    0.000000
    2  S  1  S    0.000000
    3  S  1  S    0.000000
    4  S  1  S    0.000000
    5  S  1  X   -0.192408
    6  S  1  Y    0.000000
    7  S  1  Z    0.000000
    8  S  1  X    2.232061
    9  S  1  Y    0.000000
   10  S  1  Z    0.000000
   11  S  1  X    0.396621
   12  S  1  Y    0.000000
   13  S  1  Z    0.000000
   14  S  1 XX    0.000000
   15  S  1 YY    0.000000
   16  S  1 ZZ    0.000000
   17  S  1 XY    0.000000
   18  S  1 XZ    0.688279
   19  S  1 YZ    0.000000
   20  O  2  S   -0.044847
   21  O  2  S   -0.359788
   22  O  2  S    1.864561
   23  O  2  X    0.395910
   24  O  2  Y    0.000000
   25  O  2  Z   -0.044957
   26  O  2  X    0.975114
   27  O  2  Y    0.000000
   28  O  2  Z   -0.180844
   29  O  2 XX    0.922758
   30  O  2 YY   -0.417047
   31  O  2 ZZ   -0.505711
   32  O  2 XY    0.000000
   33  O  2 XZ   -0.225121
   34  O  2 YZ    0.000000
   35  O  3  S    0.044847
   36  O  3  S    0.359788
   37  O  3  S   -1.864561
   38  O  3  X    0.395910
   39  O  3  Y    0.000000
   40  O  3  Z    0.044957
   41  O  3  X    0.975114
   42  O  3  Y    0.000000
   43  O  3  Z    0.180844
   44  O  3 XX   -0.922758
   45  O  3 YY    0.417047
   46  O  3 ZZ    0.505711
   47  O  3 XY    0.000000
   48  O  3 XZ   -0.225121
   49  O  3 YZ    0.000000
 ...... END OF RHF CALCULATION ......
 STEP CPU TIME =     4.54 TOTAL CPU TIME =        4.7 (    0.1 MIN)
 TOTAL WALL CLOCK TIME=        4.7 SECONDS, CPU UTILIZATION IS  99.79%

     ---------------------------------------------------------------------
     PROPERTIES FOR THE PBE      DFT FUNCTIONAL (RHF  TYPE) DENSITY MATRIX
     ---------------------------------------------------------------------

          -----------------
          ENERGY COMPONENTS
          -----------------

         WAVEFUNCTION NORMALIZATION =       1.0000000000

                ONE ELECTRON ENERGY =   -1007.7349544170
                TWO ELECTRON ENERGY =     332.3414354309
           NUCLEAR REPULSION ENERGY =     127.5003358739
                                      ------------------
                       TOTAL ENERGY =    -547.8931831121

 ELECTRON-ELECTRON POTENTIAL ENERGY =     332.3414354309
  NUCLEUS-ELECTRON POTENTIAL ENERGY =   -1558.2608006387
   NUCLEUS-NUCLEUS POTENTIAL ENERGY =     127.5003358739
                                      ------------------
             TOTAL POTENTIAL ENERGY =   -1098.4190293338
               TOTAL KINETIC ENERGY =     550.5258462217
                 VIRIAL RATIO (V/T) =       1.9952179119

          ---------------------------------------
          MULLIKEN AND LOWDIN POPULATION ANALYSES
          ---------------------------------------

     ATOMIC MULLIKEN POPULATION IN EACH MOLECULAR ORBITAL

                      1          2          3          4          5

                  2.000000   2.000000   2.000000   2.000000   2.000000

    1             2.000107   0.000837   0.001526   2.004682   1.997447
    2            -0.000054   0.999581   0.999237  -0.002341   0.001276
    3            -0.000054   0.999581   0.999237  -0.002341   0.001276

                      6          7          8          9         10

                  2.000000   2.000000   2.000000   2.000000   2.000000

    1             1.999855   1.999671   0.741720   0.568997   0.854616
    2             0.000073   0.000165   0.629140   0.715502   0.572692
    3             0.000073   0.000165   0.629140   0.715502   0.572692

                     11         12         13         14         15

                  2.000000   2.000000   2.000000   2.000000   2.000000

    1             0.453462   0.702828   0.228669   0.240460   0.228700
    2             0.773269   0.648586   0.885666   0.879770   0.885650
    3             0.773269   0.648586   0.885666   0.879770   0.885650

                     16

                  2.000000

    1             1.638645
    2             0.180678
    3             0.180678

               ----- POPULATIONS IN EACH AO -----
                             MULLIKEN      LOWDIN
              1  S  1  S      2.00028     1.99573
              2  S  1  S      2.01158     1.92483
              3  S  1  S      0.82367     0.48808
              4  S  1  S      1.24560     0.67244
              5  S  1  X      1.99723     1.95971
              6  S  1  Y      1.99598     1.95463
              7  S  1  Z      1.99681     1.96170
              8  S  1  X      0.73528     0.62454
              9  S  1  Y      0.63783     0.57264
             10  S  1  Z      0.78449     0.73915
             11  S  1  X      0.04738     0.24540
             12  S  1  Y      0.20683     0.29061
             13  S  1  Z      0.24545     0.35265
             14  S  1 XX      0.13113     0.44280
             15  S  1 YY      0.30294     0.30342
             16  S  1 ZZ      0.24046     0.32901
             17  S  1 XY      0.24544     0.30373
             18  S  1 XZ      0.01383     0.30609
             19  S  1 YZ      0.00000     0.01377
             20  O  2  S      1.99823     1.97922
             21  O  2  S      0.81722     0.62778
             22  O  2  S      0.86819     0.49237
             23  O  2  X      1.06893     1.03089
             24  O  2  Y      0.92245     0.86378
             25  O  2  Z      1.05795     1.01133
             26  O  2  X      0.35177     0.50734
             27  O  2  Y      0.51672     0.55113
             28  O  2  Z      0.52929     0.57720
             29  O  2 XX      0.00437     0.21752
             30  O  2 YY      0.00925     0.18250
             31  O  2 ZZ      0.01282     0.18124
             32  O  2 XY      0.01117     0.01661
             33  O  2 XZ      0.00055     0.01983
             34  O  2 YZ      0.00000     0.00079
             35  O  3  S      1.99823     1.97922
             36  O  3  S      0.81722     0.62778
             37  O  3  S      0.86819     0.49237
             38  O  3  X      1.06893     1.03089
             39  O  3  Y      0.92245     0.86378
             40  O  3  Z      1.05795     1.01133
             41  O  3  X      0.35177     0.50734
             42  O  3  Y      0.51672     0.55113
             43  O  3  Z      0.52929     0.57720
             44  O  3 XX      0.00437     0.21752
             45  O  3 YY      0.00925     0.18250
             46  O  3 ZZ      0.01282     0.18124
             47  O  3 XY      0.01117     0.01661
             48  O  3 XZ      0.00055     0.01983
             49  O  3 YZ      0.00000     0.00079

          ----- MULLIKEN ATOMIC OVERLAP POPULATIONS -----
          (OFF-DIAGONAL ELEMENTS NEED TO BE MULTIPLIED BY 2)

             1           2           3

    1   15.3925943
    2    0.1348135   7.9808606
    3    0.1348135   0.0532153   7.9808606

          TOTAL MULLIKEN AND LOWDIN ATOMIC POPULATIONS
       ATOM         MULL.POP.    CHARGE          LOW.POP.     CHARGE
    1 S            15.662221    0.337779        15.480944    0.519056
    2 O             8.168889   -0.168889         8.259528   -0.259528
    3 O             8.168889   -0.168889         8.259528   -0.259528

          MULLIKEN SPHERICAL HARMONIC POPULATIONS
       ATOM           S       P       D      F      G      H      I    TOTAL
    1 S             6.08    8.65    0.93   0.00   0.00   0.00   0.00   15.66
    2 O             3.68    4.45    0.04   0.00   0.00   0.00   0.00    8.17
    3 O             3.68    4.45    0.04   0.00   0.00   0.00   0.00    8.17

          -------------------------------
          BOND ORDER AND VALENCE ANALYSIS     BOND ORDER THRESHOLD=0.050
          -------------------------------

                   BOND                       BOND                       BOND
  ATOM PAIR DIST  ORDER      ATOM PAIR DIST  ORDER      ATOM PAIR DIST  ORDER
    1   2  1.200  2.062        1   3  1.200  2.062        2   3  2.318  0.113

                       TOTAL       BONDED        FREE
      ATOM            VALENCE     VALENCE     VALENCE
    1 S                 4.123       4.123       0.000
    2 O                 2.175       2.175       0.000
    3 O                 2.175       2.175       0.000

          ---------------------
          ELECTROSTATIC MOMENTS
          ---------------------

 POINT   1           X           Y           Z (BOHR)    CHARGE
                 0.000000    0.000000    0.000000        0.00 (A.U.)
         DX          DY          DZ         /D/  (DEBYE)
     0.000000    0.000000    0.489494    0.489494
 ...... END OF PROPERTY EVALUATION ......
 STEP CPU TIME =     0.00 TOTAL CPU TIME =        4.7 (    0.1 MIN)
 TOTAL WALL CLOCK TIME=        4.7 SECONDS, CPU UTILIZATION IS  99.79%
               580000  WORDS OF DYNAMIC MEMORY USED
 EXECUTION OF GAMESS TERMINATED NORMALLY Thu Feb 26 00:13:25 2015
 DDI: 263624 bytes (0.3 MB / 0 MWords) used by master data server.

 ----------------------------------------
 CPU timing information for all processes
 ========================================
 0: 4.709 + 0.23 = 4.733
 ----------------------------------------
 ddikick.x: exited gracefully.
----- accounting info -----
Files used on the master node dftfe.crc.nd.edu were:
-rw-r--r-- 1 pmehta1 campus   37475 Feb 26 00:13 /tmp/gamess.dat
-rw-r--r-- 1 pmehta1 campus     142 Feb 26 00:13 /tmp/gamess.F05
-rw-r--r-- 1 pmehta1 campus 2340312 Feb 26 00:13 /tmp/gamess.F08
-rw-r--r-- 1 pmehta1 campus 1220440 Feb 26 00:13 /tmp/gamess.F10
Thu Feb 26 00:13:28 EST 2015
0.242u 0.181s 0:08.15 5.1%	0+0k 0+104io 0pf+0w
